PSF EXT CMAP XPLOR

         2 !NTITLE
* GENERATED BY CHARMM-GUI FF-Converter
* DATE:   08/30/26   14:23:33

     36903 !NATOM
         1 PROA     1        ASN      N        NH3     -0.300000       14.0070           0
         2 PROA     1        ASN      HT1      HC       0.330000       1.00800           0
         3 PROA     1        ASN      HT2      HC       0.330000       1.00800           0
         4 PROA     1        ASN      HT3      HC       0.330000       1.00800           0
         5 PROA     1        ASN      CA       CT1      0.210000       12.0110           0
         6 PROA     1        ASN      HA       HB1      0.100000       1.00800           0
         7 PROA     1        ASN      CB       CT2     -0.180000       12.0110           0
         8 PROA     1        ASN      HB1      HA2      0.900000E-01   1.00800           0
         9 PROA     1        ASN      HB2      HA2      0.900000E-01   1.00800           0
        10 PROA     1        ASN      CG       CC       0.550000       12.0110           0
        11 PROA     1        ASN      OD1      O       -0.550000       15.9994           0
        12 PROA     1        ASN      ND2      NH2     -0.620000       14.0070           0
        13 PROA     1        ASN      HD21     H        0.320000       1.00800           0
        14 PROA     1        ASN      HD22     H        0.300000       1.00800           0
        15 PROA     1        ASN      C        CC       0.340000       12.0110           0
        16 PROA     1        ASN      OT1      OC      -0.670000       15.9994           0
        17 PROA     1        ASN      OT2      OC      -0.670000       15.9994           0
        18 PROB     2        ASN      N        NH3     -0.300000       14.0070           0
        19 PROB     2        ASN      HT1      HC       0.330000       1.00800           0
        20 PROB     2        ASN      HT2      HC       0.330000       1.00800           0
        21 PROB     2        ASN      HT3      HC       0.330000       1.00800           0
        22 PROB     2        ASN      CA       CT1      0.210000       12.0110           0
        23 PROB     2        ASN      HA       HB1      0.100000       1.00800           0
        24 PROB     2        ASN      CB       CT2     -0.180000       12.0110           0
        25 PROB     2        ASN      HB1      HA2      0.900000E-01   1.00800           0
        26 PROB     2        ASN      HB2      HA2      0.900000E-01   1.00800           0
        27 PROB     2        ASN      CG       CC       0.550000       12.0110           0
        28 PROB     2        ASN      OD1      O       -0.550000       15.9994           0
        29 PROB     2        ASN      ND2      NH2     -0.620000       14.0070           0
        30 PROB     2        ASN      HD21     H        0.320000       1.00800           0
        31 PROB     2        ASN      HD22     H        0.300000       1.00800           0
        32 PROB     2        ASN      C        CC       0.340000       12.0110           0
        33 PROB     2        ASN      OT1      OC      -0.670000       15.9994           0
        34 PROB     2        ASN      OT2      OC      -0.670000       15.9994           0
        35 PROC     3        ARG      N        NH3     -0.300000       14.0070           0
        36 PROC     3        ARG      HT1      HC       0.330000       1.00800           0
        37 PROC     3        ARG      HT2      HC       0.330000       1.00800           0
        38 PROC     3        ARG      HT3      HC       0.330000       1.00800           0
        39 PROC     3        ARG      CA       CT1      0.210000       12.0110           0
        40 PROC     3        ARG      HA       HB1      0.100000       1.00800           0
        41 PROC     3        ARG      CB       CT2     -0.180000       12.0110           0
        42 PROC     3        ARG      HB1      HA2      0.900000E-01   1.00800           0
        43 PROC     3        ARG      HB2      HA2      0.900000E-01   1.00800           0
        44 PROC     3        ARG      CG       CT2     -0.180000       12.0110           0
        45 PROC     3        ARG      HG1      HA2      0.900000E-01   1.00800           0
        46 PROC     3        ARG      HG2      HA2      0.900000E-01   1.00800           0
        47 PROC     3        ARG      CD       CT2      0.200000       12.0110           0
        48 PROC     3        ARG      HD1      HA2      0.900000E-01   1.00800           0
        49 PROC     3        ARG      HD2      HA2      0.900000E-01   1.00800           0
        50 PROC     3        ARG      NE       NC2     -0.700000       14.0070           0
        51 PROC     3        ARG      HE       HC       0.440000       1.00800           0
        52 PROC     3        ARG      CZ       C        0.640000       12.0110           0
        53 PROC     3        ARG      NH1      NC2     -0.800000       14.0070           0
        54 PROC     3        ARG      HH11     HC       0.460000       1.00800           0
        55 PROC     3        ARG      HH12     HC       0.460000       1.00800           0
        56 PROC     3        ARG      NH2      NC2     -0.800000       14.0070           0
        57 PROC     3        ARG      HH21     HC       0.460000       1.00800           0
        58 PROC     3        ARG      HH22     HC       0.460000       1.00800           0
        59 PROC     3        ARG      C        CC       0.340000       12.0110           0
        60 PROC     3        ARG      OT1      OC      -0.670000       15.9994           0
        61 PROC     3        ARG      OT2      OC      -0.670000       15.9994           0
        62 PROD     4        PRO      N        NP      -0.700000E-01   14.0070           0
        63 PROD     4        PRO      HN1      HC       0.240000       1.00800           0
        64 PROD     4        PRO      HN2      HC       0.240000       1.00800           0
        65 PROD     4        PRO      CD       CP3      0.160000       12.0110           0
        66 PROD     4        PRO      HD1      HA2      0.900000E-01   1.00800           0
        67 PROD     4        PRO      HD2      HA2      0.900000E-01   1.00800           0
        68 PROD     4        PRO      CA       CP1      0.160000       12.0110           0
        69 PROD     4        PRO      HA       HB1      0.900000E-01   1.00800           0
        70 PROD     4        PRO      CB       CP2     -0.180000       12.0110           0
        71 PROD     4        PRO      HB1      HA2      0.900000E-01   1.00800           0
        72 PROD     4        PRO      HB2      HA2      0.900000E-01   1.00800           0
        73 PROD     4        PRO      CG       CP2     -0.180000       12.0110           0
        74 PROD     4        PRO      HG1      HA2      0.900000E-01   1.00800           0
        75 PROD     4        PRO      HG2      HA2      0.900000E-01   1.00800           0
        76 PROD     4        PRO      C        CC       0.340000       12.0110           0
        77 PROD     4        PRO      OT1      OC      -0.670000       15.9994           0
        78 PROD     4        PRO      OT2      OC      -0.670000       15.9994           0
        79 PROE     5        ASN      N        NH3     -0.300000       14.0070           0
        80 PROE     5        ASN      HT1      HC       0.330000       1.00800           0
        81 PROE     5        ASN      HT2      HC       0.330000       1.00800           0
        82 PROE     5        ASN      HT3      HC       0.330000       1.00800           0
        83 PROE     5        ASN      CA       CT1      0.210000       12.0110           0
        84 PROE     5        ASN      HA       HB1      0.100000       1.00800           0
        85 PROE     5        ASN      CB       CT2     -0.180000       12.0110           0
        86 PROE     5        ASN      HB1      HA2      0.900000E-01   1.00800           0
        87 PROE     5        ASN      HB2      HA2      0.900000E-01   1.00800           0
        88 PROE     5        ASN      CG       CC       0.550000       12.0110           0
        89 PROE     5        ASN      OD1      O       -0.550000       15.9994           0
        90 PROE     5        ASN      ND2      NH2     -0.620000       14.0070           0
        91 PROE     5        ASN      HD21     H        0.320000       1.00800           0
        92 PROE     5        ASN      HD22     H        0.300000       1.00800           0
        93 PROE     5        ASN      C        CC       0.340000       12.0110           0
        94 PROE     5        ASN      OT1      OC      -0.670000       15.9994           0
        95 PROE     5        ASN      OT2      OC      -0.670000       15.9994           0
        96 PROF     6        PRO      N        NP      -0.700000E-01   14.0070           0
        97 PROF     6        PRO      HN1      HC       0.240000       1.00800           0
        98 PROF     6        PRO      HN2      HC       0.240000       1.00800           0
        99 PROF     6        PRO      CD       CP3      0.160000       12.0110           0
       100 PROF     6        PRO      HD1      HA2      0.900000E-01   1.00800           0
       101 PROF     6        PRO      HD2      HA2      0.900000E-01   1.00800           0
       102 PROF     6        PRO      CA       CP1      0.160000       12.0110           0
       103 PROF     6        PRO      HA       HB1      0.900000E-01   1.00800           0
       104 PROF     6        PRO      CB       CP2     -0.180000       12.0110           0
       105 PROF     6        PRO      HB1      HA2      0.900000E-01   1.00800           0
       106 PROF     6        PRO      HB2      HA2      0.900000E-01   1.00800           0
       107 PROF     6        PRO      CG       CP2     -0.180000       12.0110           0
       108 PROF     6        PRO      HG1      HA2      0.900000E-01   1.00800           0
       109 PROF     6        PRO      HG2      HA2      0.900000E-01   1.00800           0
       110 PROF     6        PRO      C        CC       0.340000       12.0110           0
       111 PROF     6        PRO      OT1      OC      -0.670000       15.9994           0
       112 PROF     6        PRO      OT2      OC      -0.670000       15.9994           0
       113 MEMB     1        POPC     N        NTL     -0.600000       14.0070           0
       114 MEMB     1        POPC     C12      CTL2    -0.100000       12.0110           0
       115 MEMB     1        POPC     H12A     HL       0.250000       1.00800           0
       116 MEMB     1        POPC     H12B     HL       0.250000       1.00800           0
       117 MEMB     1        POPC     C13      CTL5    -0.350000       12.0110           0
       118 MEMB     1        POPC     H13A     HL       0.250000       1.00800           0
       119 MEMB     1        POPC     H13B     HL       0.250000       1.00800           0
       120 MEMB     1        POPC     H13C     HL       0.250000       1.00800           0
       121 MEMB     1        POPC     C14      CTL5    -0.350000       12.0110           0
       122 MEMB     1        POPC     H14A     HL       0.250000       1.00800           0
       123 MEMB     1        POPC     H14B     HL       0.250000       1.00800           0
       124 MEMB     1        POPC     H14C     HL       0.250000       1.00800           0
       125 MEMB     1        POPC     C15      CTL5    -0.350000       12.0110           0
       126 MEMB     1        POPC     H15A     HL       0.250000       1.00800           0
       127 MEMB     1        POPC     H15B     HL       0.250000       1.00800           0
       128 MEMB     1        POPC     H15C     HL       0.250000       1.00800           0
       129 MEMB     1        POPC     C11      CTL2    -0.800000E-01   12.0110           0
       130 MEMB     1        POPC     H11A     HAL2     0.900000E-01   1.00800           0
       131 MEMB     1        POPC     H11B     HAL2     0.900000E-01   1.00800           0
       132 MEMB     1        POPC     P        PL       1.500000       30.9740           0
       133 MEMB     1        POPC     O13      O2L     -0.780000       15.9994           0
       134 MEMB     1        POPC     O14      O2L     -0.780000       15.9994           0
       135 MEMB     1        POPC     O12      OSLP    -0.570000       15.9994           0
       136 MEMB     1        POPC     O11      OSLP    -0.570000       15.9994           0
       137 MEMB     1        POPC     C1       CTL2    -0.800000E-01   12.0110           0
       138 MEMB     1        POPC     HA       HAL2     0.900000E-01   1.00800           0
       139 MEMB     1        POPC     HB       HAL2     0.900000E-01   1.00800           0
       140 MEMB     1        POPC     C2       CTL1     0.170000       12.0110           0
       141 MEMB     1        POPC     HS       HAL1     0.900000E-01   1.00800           0
       142 MEMB     1        POPC     O21      OSL     -0.490000       15.9994           0
       143 MEMB     1        POPC     C21      CL       0.900000       12.0110           0
       144 MEMB     1        POPC     O22      OBL     -0.630000       15.9994           0
       145 MEMB     1        POPC     C22      CTL2    -0.220000       12.0110           0
       146 MEMB     1        POPC     H2R      HAL2     0.900000E-01   1.00800           0
       147 MEMB     1        POPC     H2S      HAL2     0.900000E-01   1.00800           0
       148 MEMB     1        POPC     C3       CTL2     0.800000E-01   12.0110           0
       149 MEMB     1        POPC     HX       HAL2     0.900000E-01   1.00800           0
       150 MEMB     1        POPC     HY       HAL2     0.900000E-01   1.00800           0
       151 MEMB     1        POPC     O31      OSL     -0.490000       15.9994           0
       152 MEMB     1        POPC     C31      CL       0.900000       12.0110           0
       153 MEMB     1        POPC     O32      OBL     -0.630000       15.9994           0
       154 MEMB     1        POPC     C32      CTL2    -0.220000       12.0110           0
       155 MEMB     1        POPC     H2X      HAL2     0.900000E-01   1.00800           0
       156 MEMB     1        POPC     H2Y      HAL2     0.900000E-01   1.00800           0
       157 MEMB     1        POPC     C23      CTL2    -0.180000       12.0110           0
       158 MEMB     1        POPC     H3R      HAL2     0.900000E-01   1.00800           0
       159 MEMB     1        POPC     H3S      HAL2     0.900000E-01   1.00800           0
       160 MEMB     1        POPC     C24      CTL2    -0.180000       12.0110           0
       161 MEMB     1        POPC     H4R      HAL2     0.900000E-01   1.00800           0
       162 MEMB     1        POPC     H4S      HAL2     0.900000E-01   1.00800           0
       163 MEMB     1        POPC     C25      CTL2    -0.180000       12.0110           0
       164 MEMB     1        POPC     H5R      HAL2     0.900000E-01   1.00800           0
       165 MEMB     1        POPC     H5S      HAL2     0.900000E-01   1.00800           0
       166 MEMB     1        POPC     C26      CTL2    -0.180000       12.0110           0
       167 MEMB     1        POPC     H6R      HAL2     0.900000E-01   1.00800           0
       168 MEMB     1        POPC     H6S      HAL2     0.900000E-01   1.00800           0
       169 MEMB     1        POPC     C27      CTL2    -0.180000       12.0110           0
       170 MEMB     1        POPC     H7R      HAL2     0.900000E-01   1.00800           0
       171 MEMB     1        POPC     H7S      HAL2     0.900000E-01   1.00800           0
       172 MEMB     1        POPC     C28      CTL2    -0.180000       12.0110           0
       173 MEMB     1        POPC     H8R      HAL2     0.900000E-01   1.00800           0
       174 MEMB     1        POPC     H8S      HAL2     0.900000E-01   1.00800           0
       175 MEMB     1        POPC     C29      CEL1    -0.150000       12.0110           0
       176 MEMB     1        POPC     H91      HEL1     0.150000       1.00800           0
       177 MEMB     1        POPC     C210     CEL1    -0.150000       12.0110           0
       178 MEMB     1        POPC     H101     HEL1     0.150000       1.00800           0
       179 MEMB     1        POPC     C211     CTL2    -0.180000       12.0110           0
       180 MEMB     1        POPC     H11R     HAL2     0.900000E-01   1.00800           0
       181 MEMB     1        POPC     H11S     HAL2     0.900000E-01   1.00800           0
       182 MEMB     1        POPC     C212     CTL2    -0.180000       12.0110           0
       183 MEMB     1        POPC     H12R     HAL2     0.900000E-01   1.00800           0
       184 MEMB     1        POPC     H12S     HAL2     0.900000E-01   1.00800           0
       185 MEMB     1        POPC     C213     CTL2    -0.180000       12.0110           0
       186 MEMB     1        POPC     H13R     HAL2     0.900000E-01   1.00800           0
       187 MEMB     1        POPC     H13S     HAL2     0.900000E-01   1.00800           0
       188 MEMB     1        POPC     C214     CTL2    -0.180000       12.0110           0
       189 MEMB     1        POPC     H14R     HAL2     0.900000E-01   1.00800           0
       190 MEMB     1        POPC     H14S     HAL2     0.900000E-01   1.00800           0
       191 MEMB     1        POPC     C215     CTL2    -0.180000       12.0110           0
       192 MEMB     1        POPC     H15R     HAL2     0.900000E-01   1.00800           0
       193 MEMB     1        POPC     H15S     HAL2     0.900000E-01   1.00800           0
       194 MEMB     1        POPC     C216     CTL2    -0.180000       12.0110           0
       195 MEMB     1        POPC     H16R     HAL2     0.900000E-01   1.00800           0
       196 MEMB     1        POPC     H16S     HAL2     0.900000E-01   1.00800           0
       197 MEMB     1        POPC     C217     CTL2    -0.180000       12.0110           0
       198 MEMB     1        POPC     H17R     HAL2     0.900000E-01   1.00800           0
       199 MEMB     1        POPC     H17S     HAL2     0.900000E-01   1.00800           0
       200 MEMB     1        POPC     C218     CTL3    -0.270000       12.0110           0
       201 MEMB     1        POPC     H18R     HAL3     0.900000E-01   1.00800           0
       202 MEMB     1        POPC     H18S     HAL3     0.900000E-01   1.00800           0
       203 MEMB     1        POPC     H18T     HAL3     0.900000E-01   1.00800           0
       204 MEMB     1        POPC     C33      CTL2    -0.180000       12.0110           0
       205 MEMB     1        POPC     H3X      HAL2     0.900000E-01   1.00800           0
       206 MEMB     1        POPC     H3Y      HAL2     0.900000E-01   1.00800           0
       207 MEMB     1        POPC     C34      CTL2    -0.180000       12.0110           0
       208 MEMB     1        POPC     H4X      HAL2     0.900000E-01   1.00800           0
       209 MEMB     1        POPC     H4Y      HAL2     0.900000E-01   1.00800           0
       210 MEMB     1        POPC     C35      CTL2    -0.180000       12.0110           0
       211 MEMB     1        POPC     H5X      HAL2     0.900000E-01   1.00800           0
       212 MEMB     1        POPC     H5Y      HAL2     0.900000E-01   1.00800           0
       213 MEMB     1        POPC     C36      CTL2    -0.180000       12.0110           0
       214 MEMB     1        POPC     H6X      HAL2     0.900000E-01   1.00800           0
       215 MEMB     1        POPC     H6Y      HAL2     0.900000E-01   1.00800           0
       216 MEMB     1        POPC     C37      CTL2    -0.180000       12.0110           0
       217 MEMB     1        POPC     H7X      HAL2     0.900000E-01   1.00800           0
       218 MEMB     1        POPC     H7Y      HAL2     0.900000E-01   1.00800           0
       219 MEMB     1        POPC     C38      CTL2    -0.180000       12.0110           0
       220 MEMB     1        POPC     H8X      HAL2     0.900000E-01   1.00800           0
       221 MEMB     1        POPC     H8Y      HAL2     0.900000E-01   1.00800           0
       222 MEMB     1        POPC     C39      CTL2    -0.180000       12.0110           0
       223 MEMB     1        POPC     H9X      HAL2     0.900000E-01   1.00800           0
       224 MEMB     1        POPC     H9Y      HAL2     0.900000E-01   1.00800           0
       225 MEMB     1        POPC     C310     CTL2    -0.180000       12.0110           0
       226 MEMB     1        POPC     H10X     HAL2     0.900000E-01   1.00800           0
       227 MEMB     1        POPC     H10Y     HAL2     0.900000E-01   1.00800           0
       228 MEMB     1        POPC     C311     CTL2    -0.180000       12.0110           0
       229 MEMB     1        POPC     H11X     HAL2     0.900000E-01   1.00800           0
       230 MEMB     1        POPC     H11Y     HAL2     0.900000E-01   1.00800           0
       231 MEMB     1        POPC     C312     CTL2    -0.180000       12.0110           0
       232 MEMB     1        POPC     H12X     HAL2     0.900000E-01   1.00800           0
       233 MEMB     1        POPC     H12Y     HAL2     0.900000E-01   1.00800           0
       234 MEMB     1        POPC     C313     CTL2    -0.180000       12.0110           0
       235 MEMB     1        POPC     H13X     HAL2     0.900000E-01   1.00800           0
       236 MEMB     1        POPC     H13Y     HAL2     0.900000E-01   1.00800           0
       237 MEMB     1        POPC     C314     CTL2    -0.180000       12.0110           0
       238 MEMB     1        POPC     H14X     HAL2     0.900000E-01   1.00800           0
       239 MEMB     1        POPC     H14Y     HAL2     0.900000E-01   1.00800           0
       240 MEMB     1        POPC     C315     CTL2    -0.180000       12.0110           0
       241 MEMB     1        POPC     H15X     HAL2     0.900000E-01   1.00800           0
       242 MEMB     1        POPC     H15Y     HAL2     0.900000E-01   1.00800           0
       243 MEMB     1        POPC     C316     CTL3    -0.270000       12.0110           0
       244 MEMB     1        POPC     H16X     HAL3     0.900000E-01   1.00800           0
       245 MEMB     1        POPC     H16Y     HAL3     0.900000E-01   1.00800           0
       246 MEMB     1        POPC     H16Z     HAL3     0.900000E-01   1.00800           0
       247 MEMB     2        POPS     N        NH3L    -0.300000       14.0070           0
       248 MEMB     2        POPS     HN1      HCL      0.330000       1.00800           0
       249 MEMB     2        POPS     HN2      HCL      0.330000       1.00800           0
       250 MEMB     2        POPS     HN3      HCL      0.330000       1.00800           0
       251 MEMB     2        POPS     C12      CTL1     0.210000       12.0110           0
       252 MEMB     2        POPS     H12A     HBL      0.100000       1.00800           0
       253 MEMB     2        POPS     C13      CCL      0.340000       12.0110           0
       254 MEMB     2        POPS     O13A     OCL     -0.670000       15.9994           0
       255 MEMB     2        POPS     O13B     OCL     -0.670000       15.9994           0
       256 MEMB     2        POPS     C11      CTL2    -0.800000E-01   12.0110           0
       257 MEMB     2        POPS     H11A     HAL2     0.900000E-01   1.00800           0
       258 MEMB     2        POPS     H11B     HAL2     0.900000E-01   1.00800           0
       259 MEMB     2        POPS     P        PL       1.500000       30.9740           0
       260 MEMB     2        POPS     O13      O2L     -0.780000       15.9994           0
       261 MEMB     2        POPS     O14      O2L     -0.780000       15.9994           0
       262 MEMB     2        POPS     O12      OSLP    -0.570000       15.9994           0
       263 MEMB     2        POPS     O11      OSLP    -0.570000       15.9994           0
       264 MEMB     2        POPS     C1       CTL2    -0.800000E-01   12.0110           0
       265 MEMB     2        POPS     HA       HAL2     0.900000E-01   1.00800           0
       266 MEMB     2        POPS     HB       HAL2     0.900000E-01   1.00800           0
       267 MEMB     2        POPS     C2       CTL1     0.170000       12.0110           0
       268 MEMB     2        POPS     HS       HAL1     0.900000E-01   1.00800           0
       269 MEMB     2        POPS     O21      OSL     -0.490000       15.9994           0
       270 MEMB     2        POPS     C21      CL       0.900000       12.0110           0
       271 MEMB     2        POPS     O22      OBL     -0.630000       15.9994           0
       272 MEMB     2        POPS     C22      CTL2    -0.220000       12.0110           0
       273 MEMB     2        POPS     H2R      HAL2     0.900000E-01   1.00800           0
       274 MEMB     2        POPS     H2S      HAL2     0.900000E-01   1.00800           0
       275 MEMB     2        POPS     C3       CTL2     0.800000E-01   12.0110           0
       276 MEMB     2        POPS     HX       HAL2     0.900000E-01   1.00800           0
       277 MEMB     2        POPS     HY       HAL2     0.900000E-01   1.00800           0
       278 MEMB     2        POPS     O31      OSL     -0.490000       15.9994           0
       279 MEMB     2        POPS     C31      CL       0.900000       12.0110           0
       280 MEMB     2        POPS     O32      OBL     -0.630000       15.9994           0
       281 MEMB     2        POPS     C32      CTL2    -0.220000       12.0110           0
       282 MEMB     2        POPS     H2X      HAL2     0.900000E-01   1.00800           0
       283 MEMB     2        POPS     H2Y      HAL2     0.900000E-01   1.00800           0
       284 MEMB     2        POPS     C23      CTL2    -0.180000       12.0110           0
       285 MEMB     2        POPS     H3R      HAL2     0.900000E-01   1.00800           0
       286 MEMB     2        POPS     H3S      HAL2     0.900000E-01   1.00800           0
       287 MEMB     2        POPS     C24      CTL2    -0.180000       12.0110           0
       288 MEMB     2        POPS     H4R      HAL2     0.900000E-01   1.00800           0
       289 MEMB     2        POPS     H4S      HAL2     0.900000E-01   1.00800           0
       290 MEMB     2        POPS     C25      CTL2    -0.180000       12.0110           0
       291 MEMB     2        POPS     H5R      HAL2     0.900000E-01   1.00800           0
       292 MEMB     2        POPS     H5S      HAL2     0.900000E-01   1.00800           0
       293 MEMB     2        POPS     C26      CTL2    -0.180000       12.0110           0
       294 MEMB     2        POPS     H6R      HAL2     0.900000E-01   1.00800           0
       295 MEMB     2        POPS     H6S      HAL2     0.900000E-01   1.00800           0
       296 MEMB     2        POPS     C27      CTL2    -0.180000       12.0110           0
       297 MEMB     2        POPS     H7R      HAL2     0.900000E-01   1.00800           0
       298 MEMB     2        POPS     H7S      HAL2     0.900000E-01   1.00800           0
       299 MEMB     2        POPS     C28      CTL2    -0.180000       12.0110           0
       300 MEMB     2        POPS     H8R      HAL2     0.900000E-01   1.00800           0
       301 MEMB     2        POPS     H8S      HAL2     0.900000E-01   1.00800           0
       302 MEMB     2        POPS     C29      CEL1    -0.150000       12.0110           0
       303 MEMB     2        POPS     H91      HEL1     0.150000       1.00800           0
       304 MEMB     2        POPS     C210     CEL1    -0.150000       12.0110           0
       305 MEMB     2        POPS     H101     HEL1     0.150000       1.00800           0
       306 MEMB     2        POPS     C211     CTL2    -0.180000       12.0110           0
       307 MEMB     2        POPS     H11R     HAL2     0.900000E-01   1.00800           0
       308 MEMB     2        POPS     H11S     HAL2     0.900000E-01   1.00800           0
       309 MEMB     2        POPS     C212     CTL2    -0.180000       12.0110           0
       310 MEMB     2        POPS     H12R     HAL2     0.900000E-01   1.00800           0
       311 MEMB     2        POPS     H12S     HAL2     0.900000E-01   1.00800           0
       312 MEMB     2        POPS     C213     CTL2    -0.180000       12.0110           0
       313 MEMB     2        POPS     H13R     HAL2     0.900000E-01   1.00800           0
       314 MEMB     2        POPS     H13S     HAL2     0.900000E-01   1.00800           0
       315 MEMB     2        POPS     C214     CTL2    -0.180000       12.0110           0
       316 MEMB     2        POPS     H14R     HAL2     0.900000E-01   1.00800           0
       317 MEMB     2        POPS     H14S     HAL2     0.900000E-01   1.00800           0
       318 MEMB     2        POPS     C215     CTL2    -0.180000       12.0110           0
       319 MEMB     2        POPS     H15R     HAL2     0.900000E-01   1.00800           0
       320 MEMB     2        POPS     H15S     HAL2     0.900000E-01   1.00800           0
       321 MEMB     2        POPS     C216     CTL2    -0.180000       12.0110           0
       322 MEMB     2        POPS     H16R     HAL2     0.900000E-01   1.00800           0
       323 MEMB     2        POPS     H16S     HAL2     0.900000E-01   1.00800           0
       324 MEMB     2        POPS     C217     CTL2    -0.180000       12.0110           0
       325 MEMB     2        POPS     H17R     HAL2     0.900000E-01   1.00800           0
       326 MEMB     2        POPS     H17S     HAL2     0.900000E-01   1.00800           0
       327 MEMB     2        POPS     C218     CTL3    -0.270000       12.0110           0
       328 MEMB     2        POPS     H18R     HAL3     0.900000E-01   1.00800           0
       329 MEMB     2        POPS     H18S     HAL3     0.900000E-01   1.00800           0
       330 MEMB     2        POPS     H18T     HAL3     0.900000E-01   1.00800           0
       331 MEMB     2        POPS     C33      CTL2    -0.180000       12.0110           0
       332 MEMB     2        POPS     H3X      HAL2     0.900000E-01   1.00800           0
       333 MEMB     2        POPS     H3Y      HAL2     0.900000E-01   1.00800           0
       334 MEMB     2        POPS     C34      CTL2    -0.180000       12.0110           0
       335 MEMB     2        POPS     H4X      HAL2     0.900000E-01   1.00800           0
       336 MEMB     2        POPS     H4Y      HAL2     0.900000E-01   1.00800           0
       337 MEMB     2        POPS     C35      CTL2    -0.180000       12.0110           0
       338 MEMB     2        POPS     H5X      HAL2     0.900000E-01   1.00800           0
       339 MEMB     2        POPS     H5Y      HAL2     0.900000E-01   1.00800           0
       340 MEMB     2        POPS     C36      CTL2    -0.180000       12.0110           0
       341 MEMB     2        POPS     H6X      HAL2     0.900000E-01   1.00800           0
       342 MEMB     2        POPS     H6Y      HAL2     0.900000E-01   1.00800           0
       343 MEMB     2        POPS     C37      CTL2    -0.180000       12.0110           0
       344 MEMB     2        POPS     H7X      HAL2     0.900000E-01   1.00800           0
       345 MEMB     2        POPS     H7Y      HAL2     0.900000E-01   1.00800           0
       346 MEMB     2        POPS     C38      CTL2    -0.180000       12.0110           0
       347 MEMB     2        POPS     H8X      HAL2     0.900000E-01   1.00800           0
       348 MEMB     2        POPS     H8Y      HAL2     0.900000E-01   1.00800           0
       349 MEMB     2        POPS     C39      CTL2    -0.180000       12.0110           0
       350 MEMB     2        POPS     H9X      HAL2     0.900000E-01   1.00800           0
       351 MEMB     2        POPS     H9Y      HAL2     0.900000E-01   1.00800           0
       352 MEMB     2        POPS     C310     CTL2    -0.180000       12.0110           0
       353 MEMB     2        POPS     H10X     HAL2     0.900000E-01   1.00800           0
       354 MEMB     2        POPS     H10Y     HAL2     0.900000E-01   1.00800           0
       355 MEMB     2        POPS     C311     CTL2    -0.180000       12.0110           0
       356 MEMB     2        POPS     H11X     HAL2     0.900000E-01   1.00800           0
       357 MEMB     2        POPS     H11Y     HAL2     0.900000E-01   1.00800           0
       358 MEMB     2        POPS     C312     CTL2    -0.180000       12.0110           0
       359 MEMB     2        POPS     H12X     HAL2     0.900000E-01   1.00800           0
       360 MEMB     2        POPS     H12Y     HAL2     0.900000E-01   1.00800           0
       361 MEMB     2        POPS     C313     CTL2    -0.180000       12.0110           0
       362 MEMB     2        POPS     H13X     HAL2     0.900000E-01   1.00800           0
       363 MEMB     2        POPS     H13Y     HAL2     0.900000E-01   1.00800           0
       364 MEMB     2        POPS     C314     CTL2    -0.180000       12.0110           0
       365 MEMB     2        POPS     H14X     HAL2     0.900000E-01   1.00800           0
       366 MEMB     2        POPS     H14Y     HAL2     0.900000E-01   1.00800           0
       367 MEMB     2        POPS     C315     CTL2    -0.180000       12.0110           0
       368 MEMB     2        POPS     H15X     HAL2     0.900000E-01   1.00800           0
       369 MEMB     2        POPS     H15Y     HAL2     0.900000E-01   1.00800           0
       370 MEMB     2        POPS     C316     CTL3    -0.270000       12.0110           0
       371 MEMB     2        POPS     H16X     HAL3     0.900000E-01   1.00800           0
       372 MEMB     2        POPS     H16Y     HAL3     0.900000E-01   1.00800           0
       373 MEMB     2        POPS     H16Z     HAL3     0.900000E-01   1.00800           0
       374 MEMB     3        POPS     N        NH3L    -0.300000       14.0070           0
       375 MEMB     3        POPS     HN1      HCL      0.330000       1.00800           0
       376 MEMB     3        POPS     HN2      HCL      0.330000       1.00800           0
       377 MEMB     3        POPS     HN3      HCL      0.330000       1.00800           0
       378 MEMB     3        POPS     C12      CTL1     0.210000       12.0110           0
       379 MEMB     3        POPS     H12A     HBL      0.100000       1.00800           0
       380 MEMB     3        POPS     C13      CCL      0.340000       12.0110           0
       381 MEMB     3        POPS     O13A     OCL     -0.670000       15.9994           0
       382 MEMB     3        POPS     O13B     OCL     -0.670000       15.9994           0
       383 MEMB     3        POPS     C11      CTL2    -0.800000E-01   12.0110           0
       384 MEMB     3        POPS     H11A     HAL2     0.900000E-01   1.00800           0
       385 MEMB     3        POPS     H11B     HAL2     0.900000E-01   1.00800           0
       386 MEMB     3        POPS     P        PL       1.500000       30.9740           0
       387 MEMB     3        POPS     O13      O2L     -0.780000       15.9994           0
       388 MEMB     3        POPS     O14      O2L     -0.780000       15.9994           0
       389 MEMB     3        POPS     O12      OSLP    -0.570000       15.9994           0
       390 MEMB     3        POPS     O11      OSLP    -0.570000       15.9994           0
       391 MEMB     3        POPS     C1       CTL2    -0.800000E-01   12.0110           0
       392 MEMB     3        POPS     HA       HAL2     0.900000E-01   1.00800           0
       393 MEMB     3        POPS     HB       HAL2     0.900000E-01   1.00800           0
       394 MEMB     3        POPS     C2       CTL1     0.170000       12.0110           0
       395 MEMB     3        POPS     HS       HAL1     0.900000E-01   1.00800           0
       396 MEMB     3        POPS     O21      OSL     -0.490000       15.9994           0
       397 MEMB     3        POPS     C21      CL       0.900000       12.0110           0
       398 MEMB     3        POPS     O22      OBL     -0.630000       15.9994           0
       399 MEMB     3        POPS     C22      CTL2    -0.220000       12.0110           0
       400 MEMB     3        POPS     H2R      HAL2     0.900000E-01   1.00800           0
       401 MEMB     3        POPS     H2S      HAL2     0.900000E-01   1.00800           0
       402 MEMB     3        POPS     C3       CTL2     0.800000E-01   12.0110           0
       403 MEMB     3        POPS     HX       HAL2     0.900000E-01   1.00800           0
       404 MEMB     3        POPS     HY       HAL2     0.900000E-01   1.00800           0
       405 MEMB     3        POPS     O31      OSL     -0.490000       15.9994           0
       406 MEMB     3        POPS     C31      CL       0.900000       12.0110           0
       407 MEMB     3        POPS     O32      OBL     -0.630000       15.9994           0
       408 MEMB     3        POPS     C32      CTL2    -0.220000       12.0110           0
       409 MEMB     3        POPS     H2X      HAL2     0.900000E-01   1.00800           0
       410 MEMB     3        POPS     H2Y      HAL2     0.900000E-01   1.00800           0
       411 MEMB     3        POPS     C23      CTL2    -0.180000       12.0110           0
       412 MEMB     3        POPS     H3R      HAL2     0.900000E-01   1.00800           0
       413 MEMB     3        POPS     H3S      HAL2     0.900000E-01   1.00800           0
       414 MEMB     3        POPS     C24      CTL2    -0.180000       12.0110           0
       415 MEMB     3        POPS     H4R      HAL2     0.900000E-01   1.00800           0
       416 MEMB     3        POPS     H4S      HAL2     0.900000E-01   1.00800           0
       417 MEMB     3        POPS     C25      CTL2    -0.180000       12.0110           0
       418 MEMB     3        POPS     H5R      HAL2     0.900000E-01   1.00800           0
       419 MEMB     3        POPS     H5S      HAL2     0.900000E-01   1.00800           0
       420 MEMB     3        POPS     C26      CTL2    -0.180000       12.0110           0
       421 MEMB     3        POPS     H6R      HAL2     0.900000E-01   1.00800           0
       422 MEMB     3        POPS     H6S      HAL2     0.900000E-01   1.00800           0
       423 MEMB     3        POPS     C27      CTL2    -0.180000       12.0110           0
       424 MEMB     3        POPS     H7R      HAL2     0.900000E-01   1.00800           0
       425 MEMB     3        POPS     H7S      HAL2     0.900000E-01   1.00800           0
       426 MEMB     3        POPS     C28      CTL2    -0.180000       12.0110           0
       427 MEMB     3        POPS     H8R      HAL2     0.900000E-01   1.00800           0
       428 MEMB     3        POPS     H8S      HAL2     0.900000E-01   1.00800           0
       429 MEMB     3        POPS     C29      CEL1    -0.150000       12.0110           0
       430 MEMB     3        POPS     H91      HEL1     0.150000       1.00800           0
       431 MEMB     3        POPS     C210     CEL1    -0.150000       12.0110           0
       432 MEMB     3        POPS     H101     HEL1     0.150000       1.00800           0
       433 MEMB     3        POPS     C211     CTL2    -0.180000       12.0110           0
       434 MEMB     3        POPS     H11R     HAL2     0.900000E-01   1.00800           0
       435 MEMB     3        POPS     H11S     HAL2     0.900000E-01   1.00800           0
       436 MEMB     3        POPS     C212     CTL2    -0.180000       12.0110           0
       437 MEMB     3        POPS     H12R     HAL2     0.900000E-01   1.00800           0
       438 MEMB     3        POPS     H12S     HAL2     0.900000E-01   1.00800           0
       439 MEMB     3        POPS     C213     CTL2    -0.180000       12.0110           0
       440 MEMB     3        POPS     H13R     HAL2     0.900000E-01   1.00800           0
       441 MEMB     3        POPS     H13S     HAL2     0.900000E-01   1.00800           0
       442 MEMB     3        POPS     C214     CTL2    -0.180000       12.0110           0
       443 MEMB     3        POPS     H14R     HAL2     0.900000E-01   1.00800           0
       444 MEMB     3        POPS     H14S     HAL2     0.900000E-01   1.00800           0
       445 MEMB     3        POPS     C215     CTL2    -0.180000       12.0110           0
       446 MEMB     3        POPS     H15R     HAL2     0.900000E-01   1.00800           0
       447 MEMB     3        POPS     H15S     HAL2     0.900000E-01   1.00800           0
       448 MEMB     3        POPS     C216     CTL2    -0.180000       12.0110           0
       449 MEMB     3        POPS     H16R     HAL2     0.900000E-01   1.00800           0
       450 MEMB     3        POPS     H16S     HAL2     0.900000E-01   1.00800           0
       451 MEMB     3        POPS     C217     CTL2    -0.180000       12.0110           0
       452 MEMB     3        POPS     H17R     HAL2     0.900000E-01   1.00800           0
       453 MEMB     3        POPS     H17S     HAL2     0.900000E-01   1.00800           0
       454 MEMB     3        POPS     C218     CTL3    -0.270000       12.0110           0
       455 MEMB     3        POPS     H18R     HAL3     0.900000E-01   1.00800           0
       456 MEMB     3        POPS     H18S     HAL3     0.900000E-01   1.00800           0
       457 MEMB     3        POPS     H18T     HAL3     0.900000E-01   1.00800           0
       458 MEMB     3        POPS     C33      CTL2    -0.180000       12.0110           0
       459 MEMB     3        POPS     H3X      HAL2     0.900000E-01   1.00800           0
       460 MEMB     3        POPS     H3Y      HAL2     0.900000E-01   1.00800           0
       461 MEMB     3        POPS     C34      CTL2    -0.180000       12.0110           0
       462 MEMB     3        POPS     H4X      HAL2     0.900000E-01   1.00800           0
       463 MEMB     3        POPS     H4Y      HAL2     0.900000E-01   1.00800           0
       464 MEMB     3        POPS     C35      CTL2    -0.180000       12.0110           0
       465 MEMB     3        POPS     H5X      HAL2     0.900000E-01   1.00800           0
       466 MEMB     3        POPS     H5Y      HAL2     0.900000E-01   1.00800           0
       467 MEMB     3        POPS     C36      CTL2    -0.180000       12.0110           0
       468 MEMB     3        POPS     H6X      HAL2     0.900000E-01   1.00800           0
       469 MEMB     3        POPS     H6Y      HAL2     0.900000E-01   1.00800           0
       470 MEMB     3        POPS     C37      CTL2    -0.180000       12.0110           0
       471 MEMB     3        POPS     H7X      HAL2     0.900000E-01   1.00800           0
       472 MEMB     3        POPS     H7Y      HAL2     0.900000E-01   1.00800           0
       473 MEMB     3        POPS     C38      CTL2    -0.180000       12.0110           0
       474 MEMB     3        POPS     H8X      HAL2     0.900000E-01   1.00800           0
       475 MEMB     3        POPS     H8Y      HAL2     0.900000E-01   1.00800           0
       476 MEMB     3        POPS     C39      CTL2    -0.180000       12.0110           0
       477 MEMB     3        POPS     H9X      HAL2     0.900000E-01   1.00800           0
       478 MEMB     3        POPS     H9Y      HAL2     0.900000E-01   1.00800           0
       479 MEMB     3        POPS     C310     CTL2    -0.180000       12.0110           0
       480 MEMB     3        POPS     H10X     HAL2     0.900000E-01   1.00800           0
       481 MEMB     3        POPS     H10Y     HAL2     0.900000E-01   1.00800           0
       482 MEMB     3        POPS     C311     CTL2    -0.180000       12.0110           0
       483 MEMB     3        POPS     H11X     HAL2     0.900000E-01   1.00800           0
       484 MEMB     3        POPS     H11Y     HAL2     0.900000E-01   1.00800           0
       485 MEMB     3        POPS     C312     CTL2    -0.180000       12.0110           0
       486 MEMB     3        POPS     H12X     HAL2     0.900000E-01   1.00800           0
       487 MEMB     3        POPS     H12Y     HAL2     0.900000E-01   1.00800           0
       488 MEMB     3        POPS     C313     CTL2    -0.180000       12.0110           0
       489 MEMB     3        POPS     H13X     HAL2     0.900000E-01   1.00800           0
       490 MEMB     3        POPS     H13Y     HAL2     0.900000E-01   1.00800           0
       491 MEMB     3        POPS     C314     CTL2    -0.180000       12.0110           0
       492 MEMB     3        POPS     H14X     HAL2     0.900000E-01   1.00800           0
       493 MEMB     3        POPS     H14Y     HAL2     0.900000E-01   1.00800           0
       494 MEMB     3        POPS     C315     CTL2    -0.180000       12.0110           0
       495 MEMB     3        POPS     H15X     HAL2     0.900000E-01   1.00800           0
       496 MEMB     3        POPS     H15Y     HAL2     0.900000E-01   1.00800           0
       497 MEMB     3        POPS     C316     CTL3    -0.270000       12.0110           0
       498 MEMB     3        POPS     H16X     HAL3     0.900000E-01   1.00800           0
       499 MEMB     3        POPS     H16Y     HAL3     0.900000E-01   1.00800           0
       500 MEMB     3        POPS     H16Z     HAL3     0.900000E-01   1.00800           0
       501 MEMB     4        POPC     N        NTL     -0.600000       14.0070           0
       502 MEMB     4        POPC     C12      CTL2    -0.100000       12.0110           0
       503 MEMB     4        POPC     H12A     HL       0.250000       1.00800           0
       504 MEMB     4        POPC     H12B     HL       0.250000       1.00800           0
       505 MEMB     4        POPC     C13      CTL5    -0.350000       12.0110           0
       506 MEMB     4        POPC     H13A     HL       0.250000       1.00800           0
       507 MEMB     4        POPC     H13B     HL       0.250000       1.00800           0
       508 MEMB     4        POPC     H13C     HL       0.250000       1.00800           0
       509 MEMB     4        POPC     C14      CTL5    -0.350000       12.0110           0
       510 MEMB     4        POPC     H14A     HL       0.250000       1.00800           0
       511 MEMB     4        POPC     H14B     HL       0.250000       1.00800           0
       512 MEMB     4        POPC     H14C     HL       0.250000       1.00800           0
       513 MEMB     4        POPC     C15      CTL5    -0.350000       12.0110           0
       514 MEMB     4        POPC     H15A     HL       0.250000       1.00800           0
       515 MEMB     4        POPC     H15B     HL       0.250000       1.00800           0
       516 MEMB     4        POPC     H15C     HL       0.250000       1.00800           0
       517 MEMB     4        POPC     C11      CTL2    -0.800000E-01   12.0110           0
       518 MEMB     4        POPC     H11A     HAL2     0.900000E-01   1.00800           0
       519 MEMB     4        POPC     H11B     HAL2     0.900000E-01   1.00800           0
       520 MEMB     4        POPC     P        PL       1.500000       30.9740           0
       521 MEMB     4        POPC     O13      O2L     -0.780000       15.9994           0
       522 MEMB     4        POPC     O14      O2L     -0.780000       15.9994           0
       523 MEMB     4        POPC     O12      OSLP    -0.570000       15.9994           0
       524 MEMB     4        POPC     O11      OSLP    -0.570000       15.9994           0
       525 MEMB     4        POPC     C1       CTL2    -0.800000E-01   12.0110           0
       526 MEMB     4        POPC     HA       HAL2     0.900000E-01   1.00800           0
       527 MEMB     4        POPC     HB       HAL2     0.900000E-01   1.00800           0
       528 MEMB     4        POPC     C2       CTL1     0.170000       12.0110           0
       529 MEMB     4        POPC     HS       HAL1     0.900000E-01   1.00800           0
       530 MEMB     4        POPC     O21      OSL     -0.490000       15.9994           0
       531 MEMB     4        POPC     C21      CL       0.900000       12.0110           0
       532 MEMB     4        POPC     O22      OBL     -0.630000       15.9994           0
       533 MEMB     4        POPC     C22      CTL2    -0.220000       12.0110           0
       534 MEMB     4        POPC     H2R      HAL2     0.900000E-01   1.00800           0
       535 MEMB     4        POPC     H2S      HAL2     0.900000E-01   1.00800           0
       536 MEMB     4        POPC     C3       CTL2     0.800000E-01   12.0110           0
       537 MEMB     4        POPC     HX       HAL2     0.900000E-01   1.00800           0
       538 MEMB     4        POPC     HY       HAL2     0.900000E-01   1.00800           0
       539 MEMB     4        POPC     O31      OSL     -0.490000       15.9994           0
       540 MEMB     4        POPC     C31      CL       0.900000       12.0110           0
       541 MEMB     4        POPC     O32      OBL     -0.630000       15.9994           0
       542 MEMB     4        POPC     C32      CTL2    -0.220000       12.0110           0
       543 MEMB     4        POPC     H2X      HAL2     0.900000E-01   1.00800           0
       544 MEMB     4        POPC     H2Y      HAL2     0.900000E-01   1.00800           0
       545 MEMB     4        POPC     C23      CTL2    -0.180000       12.0110           0
       546 MEMB     4        POPC     H3R      HAL2     0.900000E-01   1.00800           0
       547 MEMB     4        POPC     H3S      HAL2     0.900000E-01   1.00800           0
       548 MEMB     4        POPC     C24      CTL2    -0.180000       12.0110           0
       549 MEMB     4        POPC     H4R      HAL2     0.900000E-01   1.00800           0
       550 MEMB     4        POPC     H4S      HAL2     0.900000E-01   1.00800           0
       551 MEMB     4        POPC     C25      CTL2    -0.180000       12.0110           0
       552 MEMB     4        POPC     H5R      HAL2     0.900000E-01   1.00800           0
       553 MEMB     4        POPC     H5S      HAL2     0.900000E-01   1.00800           0
       554 MEMB     4        POPC     C26      CTL2    -0.180000       12.0110           0
       555 MEMB     4        POPC     H6R      HAL2     0.900000E-01   1.00800           0
       556 MEMB     4        POPC     H6S      HAL2     0.900000E-01   1.00800           0
       557 MEMB     4        POPC     C27      CTL2    -0.180000       12.0110           0
       558 MEMB     4        POPC     H7R      HAL2     0.900000E-01   1.00800           0
       559 MEMB     4        POPC     H7S      HAL2     0.900000E-01   1.00800           0
       560 MEMB     4        POPC     C28      CTL2    -0.180000       12.0110           0
       561 MEMB     4        POPC     H8R      HAL2     0.900000E-01   1.00800           0
       562 MEMB     4        POPC     H8S      HAL2     0.900000E-01   1.00800           0
       563 MEMB     4        POPC     C29      CEL1    -0.150000       12.0110           0
       564 MEMB     4        POPC     H91      HEL1     0.150000       1.00800           0
       565 MEMB     4        POPC     C210     CEL1    -0.150000       12.0110           0
       566 MEMB     4        POPC     H101     HEL1     0.150000       1.00800           0
       567 MEMB     4        POPC     C211     CTL2    -0.180000       12.0110           0
       568 MEMB     4        POPC     H11R     HAL2     0.900000E-01   1.00800           0
       569 MEMB     4        POPC     H11S     HAL2     0.900000E-01   1.00800           0
       570 MEMB     4        POPC     C212     CTL2    -0.180000       12.0110           0
       571 MEMB     4        POPC     H12R     HAL2     0.900000E-01   1.00800           0
       572 MEMB     4        POPC     H12S     HAL2     0.900000E-01   1.00800           0
       573 MEMB     4        POPC     C213     CTL2    -0.180000       12.0110           0
       574 MEMB     4        POPC     H13R     HAL2     0.900000E-01   1.00800           0
       575 MEMB     4        POPC     H13S     HAL2     0.900000E-01   1.00800           0
       576 MEMB     4        POPC     C214     CTL2    -0.180000       12.0110           0
       577 MEMB     4        POPC     H14R     HAL2     0.900000E-01   1.00800           0
       578 MEMB     4        POPC     H14S     HAL2     0.900000E-01   1.00800           0
       579 MEMB     4        POPC     C215     CTL2    -0.180000       12.0110           0
       580 MEMB     4        POPC     H15R     HAL2     0.900000E-01   1.00800           0
       581 MEMB     4        POPC     H15S     HAL2     0.900000E-01   1.00800           0
       582 MEMB     4        POPC     C216     CTL2    -0.180000       12.0110           0
       583 MEMB     4        POPC     H16R     HAL2     0.900000E-01   1.00800           0
       584 MEMB     4        POPC     H16S     HAL2     0.900000E-01   1.00800           0
       585 MEMB     4        POPC     C217     CTL2    -0.180000       12.0110           0
       586 MEMB     4        POPC     H17R     HAL2     0.900000E-01   1.00800           0
       587 MEMB     4        POPC     H17S     HAL2     0.900000E-01   1.00800           0
       588 MEMB     4        POPC     C218     CTL3    -0.270000       12.0110           0
       589 MEMB     4        POPC     H18R     HAL3     0.900000E-01   1.00800           0
       590 MEMB     4        POPC     H18S     HAL3     0.900000E-01   1.00800           0
       591 MEMB     4        POPC     H18T     HAL3     0.900000E-01   1.00800           0
       592 MEMB     4        POPC     C33      CTL2    -0.180000       12.0110           0
       593 MEMB     4        POPC     H3X      HAL2     0.900000E-01   1.00800           0
       594 MEMB     4        POPC     H3Y      HAL2     0.900000E-01   1.00800           0
       595 MEMB     4        POPC     C34      CTL2    -0.180000       12.0110           0
       596 MEMB     4        POPC     H4X      HAL2     0.900000E-01   1.00800           0
       597 MEMB     4        POPC     H4Y      HAL2     0.900000E-01   1.00800           0
       598 MEMB     4        POPC     C35      CTL2    -0.180000       12.0110           0
       599 MEMB     4        POPC     H5X      HAL2     0.900000E-01   1.00800           0
       600 MEMB     4        POPC     H5Y      HAL2     0.900000E-01   1.00800           0
       601 MEMB     4        POPC     C36      CTL2    -0.180000       12.0110           0
       602 MEMB     4        POPC     H6X      HAL2     0.900000E-01   1.00800           0
       603 MEMB     4        POPC     H6Y      HAL2     0.900000E-01   1.00800           0
       604 MEMB     4        POPC     C37      CTL2    -0.180000       12.0110           0
       605 MEMB     4        POPC     H7X      HAL2     0.900000E-01   1.00800           0
       606 MEMB     4        POPC     H7Y      HAL2     0.900000E-01   1.00800           0
       607 MEMB     4        POPC     C38      CTL2    -0.180000       12.0110           0
       608 MEMB     4        POPC     H8X      HAL2     0.900000E-01   1.00800           0
       609 MEMB     4        POPC     H8Y      HAL2     0.900000E-01   1.00800           0
       610 MEMB     4        POPC     C39      CTL2    -0.180000       12.0110           0
       611 MEMB     4        POPC     H9X      HAL2     0.900000E-01   1.00800           0
       612 MEMB     4        POPC     H9Y      HAL2     0.900000E-01   1.00800           0
       613 MEMB     4        POPC     C310     CTL2    -0.180000       12.0110           0
       614 MEMB     4        POPC     H10X     HAL2     0.900000E-01   1.00800           0
       615 MEMB     4        POPC     H10Y     HAL2     0.900000E-01   1.00800           0
       616 MEMB     4        POPC     C311     CTL2    -0.180000       12.0110           0
       617 MEMB     4        POPC     H11X     HAL2     0.900000E-01   1.00800           0
       618 MEMB     4        POPC     H11Y     HAL2     0.900000E-01   1.00800           0
       619 MEMB     4        POPC     C312     CTL2    -0.180000       12.0110           0
       620 MEMB     4        POPC     H12X     HAL2     0.900000E-01   1.00800           0
       621 MEMB     4        POPC     H12Y     HAL2     0.900000E-01   1.00800           0
       622 MEMB     4        POPC     C313     CTL2    -0.180000       12.0110           0
       623 MEMB     4        POPC     H13X     HAL2     0.900000E-01   1.00800           0
       624 MEMB     4        POPC     H13Y     HAL2     0.900000E-01   1.00800           0
       625 MEMB     4        POPC     C314     CTL2    -0.180000       12.0110           0
       626 MEMB     4        POPC     H14X     HAL2     0.900000E-01   1.00800           0
       627 MEMB     4        POPC     H14Y     HAL2     0.900000E-01   1.00800           0
       628 MEMB     4        POPC     C315     CTL2    -0.180000       12.0110           0
       629 MEMB     4        POPC     H15X     HAL2     0.900000E-01   1.00800           0
       630 MEMB     4        POPC     H15Y     HAL2     0.900000E-01   1.00800           0
       631 MEMB     4        POPC     C316     CTL3    -0.270000       12.0110           0
       632 MEMB     4        POPC     H16X     HAL3     0.900000E-01   1.00800           0
       633 MEMB     4        POPC     H16Y     HAL3     0.900000E-01   1.00800           0
       634 MEMB     4        POPC     H16Z     HAL3     0.900000E-01   1.00800           0
       635 MEMB     5        POPC     N        NTL     -0.600000       14.0070           0
       636 MEMB     5        POPC     C12      CTL2    -0.100000       12.0110           0
       637 MEMB     5        POPC     H12A     HL       0.250000       1.00800           0
       638 MEMB     5        POPC     H12B     HL       0.250000       1.00800           0
       639 MEMB     5        POPC     C13      CTL5    -0.350000       12.0110           0
       640 MEMB     5        POPC     H13A     HL       0.250000       1.00800           0
       641 MEMB     5        POPC     H13B     HL       0.250000       1.00800           0
       642 MEMB     5        POPC     H13C     HL       0.250000       1.00800           0
       643 MEMB     5        POPC     C14      CTL5    -0.350000       12.0110           0
       644 MEMB     5        POPC     H14A     HL       0.250000       1.00800           0
       645 MEMB     5        POPC     H14B     HL       0.250000       1.00800           0
       646 MEMB     5        POPC     H14C     HL       0.250000       1.00800           0
       647 MEMB     5        POPC     C15      CTL5    -0.350000       12.0110           0
       648 MEMB     5        POPC     H15A     HL       0.250000       1.00800           0
       649 MEMB     5        POPC     H15B     HL       0.250000       1.00800           0
       650 MEMB     5        POPC     H15C     HL       0.250000       1.00800           0
       651 MEMB     5        POPC     C11      CTL2    -0.800000E-01   12.0110           0
       652 MEMB     5        POPC     H11A     HAL2     0.900000E-01   1.00800           0
       653 MEMB     5        POPC     H11B     HAL2     0.900000E-01   1.00800           0
       654 MEMB     5        POPC     P        PL       1.500000       30.9740           0
       655 MEMB     5        POPC     O13      O2L     -0.780000       15.9994           0
       656 MEMB     5        POPC     O14      O2L     -0.780000       15.9994           0
       657 MEMB     5        POPC     O12      OSLP    -0.570000       15.9994           0
       658 MEMB     5        POPC     O11      OSLP    -0.570000       15.9994           0
       659 MEMB     5        POPC     C1       CTL2    -0.800000E-01   12.0110           0
       660 MEMB     5        POPC     HA       HAL2     0.900000E-01   1.00800           0
       661 MEMB     5        POPC     HB       HAL2     0.900000E-01   1.00800           0
       662 MEMB     5        POPC     C2       CTL1     0.170000       12.0110           0
       663 MEMB     5        POPC     HS       HAL1     0.900000E-01   1.00800           0
       664 MEMB     5        POPC     O21      OSL     -0.490000       15.9994           0
       665 MEMB     5        POPC     C21      CL       0.900000       12.0110           0
       666 MEMB     5        POPC     O22      OBL     -0.630000       15.9994           0
       667 MEMB     5        POPC     C22      CTL2    -0.220000       12.0110           0
       668 MEMB     5        POPC     H2R      HAL2     0.900000E-01   1.00800           0
       669 MEMB     5        POPC     H2S      HAL2     0.900000E-01   1.00800           0
       670 MEMB     5        POPC     C3       CTL2     0.800000E-01   12.0110           0
       671 MEMB     5        POPC     HX       HAL2     0.900000E-01   1.00800           0
       672 MEMB     5        POPC     HY       HAL2     0.900000E-01   1.00800           0
       673 MEMB     5        POPC     O31      OSL     -0.490000       15.9994           0
       674 MEMB     5        POPC     C31      CL       0.900000       12.0110           0
       675 MEMB     5        POPC     O32      OBL     -0.630000       15.9994           0
       676 MEMB     5        POPC     C32      CTL2    -0.220000       12.0110           0
       677 MEMB     5        POPC     H2X      HAL2     0.900000E-01   1.00800           0
       678 MEMB     5        POPC     H2Y      HAL2     0.900000E-01   1.00800           0
       679 MEMB     5        POPC     C23      CTL2    -0.180000       12.0110           0
       680 MEMB     5        POPC     H3R      HAL2     0.900000E-01   1.00800           0
       681 MEMB     5        POPC     H3S      HAL2     0.900000E-01   1.00800           0
       682 MEMB     5        POPC     C24      CTL2    -0.180000       12.0110           0
       683 MEMB     5        POPC     H4R      HAL2     0.900000E-01   1.00800           0
       684 MEMB     5        POPC     H4S      HAL2     0.900000E-01   1.00800           0
       685 MEMB     5        POPC     C25      CTL2    -0.180000       12.0110           0
       686 MEMB     5        POPC     H5R      HAL2     0.900000E-01   1.00800           0
       687 MEMB     5        POPC     H5S      HAL2     0.900000E-01   1.00800           0
       688 MEMB     5        POPC     C26      CTL2    -0.180000       12.0110           0
       689 MEMB     5        POPC     H6R      HAL2     0.900000E-01   1.00800           0
       690 MEMB     5        POPC     H6S      HAL2     0.900000E-01   1.00800           0
       691 MEMB     5        POPC     C27      CTL2    -0.180000       12.0110           0
       692 MEMB     5        POPC     H7R      HAL2     0.900000E-01   1.00800           0
       693 MEMB     5        POPC     H7S      HAL2     0.900000E-01   1.00800           0
       694 MEMB     5        POPC     C28      CTL2    -0.180000       12.0110           0
       695 MEMB     5        POPC     H8R      HAL2     0.900000E-01   1.00800           0
       696 MEMB     5        POPC     H8S      HAL2     0.900000E-01   1.00800           0
       697 MEMB     5        POPC     C29      CEL1    -0.150000       12.0110           0
       698 MEMB     5        POPC     H91      HEL1     0.150000       1.00800           0
       699 MEMB     5        POPC     C210     CEL1    -0.150000       12.0110           0
       700 MEMB     5        POPC     H101     HEL1     0.150000       1.00800           0
       701 MEMB     5        POPC     C211     CTL2    -0.180000       12.0110           0
       702 MEMB     5        POPC     H11R     HAL2     0.900000E-01   1.00800           0
       703 MEMB     5        POPC     H11S     HAL2     0.900000E-01   1.00800           0
       704 MEMB     5        POPC     C212     CTL2    -0.180000       12.0110           0
       705 MEMB     5        POPC     H12R     HAL2     0.900000E-01   1.00800           0
       706 MEMB     5        POPC     H12S     HAL2     0.900000E-01   1.00800           0
       707 MEMB     5        POPC     C213     CTL2    -0.180000       12.0110           0
       708 MEMB     5        POPC     H13R     HAL2     0.900000E-01   1.00800           0
       709 MEMB     5        POPC     H13S     HAL2     0.900000E-01   1.00800           0
       710 MEMB     5        POPC     C214     CTL2    -0.180000       12.0110           0
       711 MEMB     5        POPC     H14R     HAL2     0.900000E-01   1.00800           0
       712 MEMB     5        POPC     H14S     HAL2     0.900000E-01   1.00800           0
       713 MEMB     5        POPC     C215     CTL2    -0.180000       12.0110           0
       714 MEMB     5        POPC     H15R     HAL2     0.900000E-01   1.00800           0
       715 MEMB     5        POPC     H15S     HAL2     0.900000E-01   1.00800           0
       716 MEMB     5        POPC     C216     CTL2    -0.180000       12.0110           0
       717 MEMB     5        POPC     H16R     HAL2     0.900000E-01   1.00800           0
       718 MEMB     5        POPC     H16S     HAL2     0.900000E-01   1.00800           0
       719 MEMB     5        POPC     C217     CTL2    -0.180000       12.0110           0
       720 MEMB     5        POPC     H17R     HAL2     0.900000E-01   1.00800           0
       721 MEMB     5        POPC     H17S     HAL2     0.900000E-01   1.00800           0
       722 MEMB     5        POPC     C218     CTL3    -0.270000       12.0110           0
       723 MEMB     5        POPC     H18R     HAL3     0.900000E-01   1.00800           0
       724 MEMB     5        POPC     H18S     HAL3     0.900000E-01   1.00800           0
       725 MEMB     5        POPC     H18T     HAL3     0.900000E-01   1.00800           0
       726 MEMB     5        POPC     C33      CTL2    -0.180000       12.0110           0
       727 MEMB     5        POPC     H3X      HAL2     0.900000E-01   1.00800           0
       728 MEMB     5        POPC     H3Y      HAL2     0.900000E-01   1.00800           0
       729 MEMB     5        POPC     C34      CTL2    -0.180000       12.0110           0
       730 MEMB     5        POPC     H4X      HAL2     0.900000E-01   1.00800           0
       731 MEMB     5        POPC     H4Y      HAL2     0.900000E-01   1.00800           0
       732 MEMB     5        POPC     C35      CTL2    -0.180000       12.0110           0
       733 MEMB     5        POPC     H5X      HAL2     0.900000E-01   1.00800           0
       734 MEMB     5        POPC     H5Y      HAL2     0.900000E-01   1.00800           0
       735 MEMB     5        POPC     C36      CTL2    -0.180000       12.0110           0
       736 MEMB     5        POPC     H6X      HAL2     0.900000E-01   1.00800           0
       737 MEMB     5        POPC     H6Y      HAL2     0.900000E-01   1.00800           0
       738 MEMB     5        POPC     C37      CTL2    -0.180000       12.0110           0
       739 MEMB     5        POPC     H7X      HAL2     0.900000E-01   1.00800           0
       740 MEMB     5        POPC     H7Y      HAL2     0.900000E-01   1.00800           0
       741 MEMB     5        POPC     C38      CTL2    -0.180000       12.0110           0
       742 MEMB     5        POPC     H8X      HAL2     0.900000E-01   1.00800           0
       743 MEMB     5        POPC     H8Y      HAL2     0.900000E-01   1.00800           0
       744 MEMB     5        POPC     C39      CTL2    -0.180000       12.0110           0
       745 MEMB     5        POPC     H9X      HAL2     0.900000E-01   1.00800           0
       746 MEMB     5        POPC     H9Y      HAL2     0.900000E-01   1.00800           0
       747 MEMB     5        POPC     C310     CTL2    -0.180000       12.0110           0
       748 MEMB     5        POPC     H10X     HAL2     0.900000E-01   1.00800           0
       749 MEMB     5        POPC     H10Y     HAL2     0.900000E-01   1.00800           0
       750 MEMB     5        POPC     C311     CTL2    -0.180000       12.0110           0
       751 MEMB     5        POPC     H11X     HAL2     0.900000E-01   1.00800           0
       752 MEMB     5        POPC     H11Y     HAL2     0.900000E-01   1.00800           0
       753 MEMB     5        POPC     C312     CTL2    -0.180000       12.0110           0
       754 MEMB     5        POPC     H12X     HAL2     0.900000E-01   1.00800           0
       755 MEMB     5        POPC     H12Y     HAL2     0.900000E-01   1.00800           0
       756 MEMB     5        POPC     C313     CTL2    -0.180000       12.0110           0
       757 MEMB     5        POPC     H13X     HAL2     0.900000E-01   1.00800           0
       758 MEMB     5        POPC     H13Y     HAL2     0.900000E-01   1.00800           0
       759 MEMB     5        POPC     C314     CTL2    -0.180000       12.0110           0
       760 MEMB     5        POPC     H14X     HAL2     0.900000E-01   1.00800           0
       761 MEMB     5        POPC     H14Y     HAL2     0.900000E-01   1.00800           0
       762 MEMB     5        POPC     C315     CTL2    -0.180000       12.0110           0
       763 MEMB     5        POPC     H15X     HAL2     0.900000E-01   1.00800           0
       764 MEMB     5        POPC     H15Y     HAL2     0.900000E-01   1.00800           0
       765 MEMB     5        POPC     C316     CTL3    -0.270000       12.0110           0
       766 MEMB     5        POPC     H16X     HAL3     0.900000E-01   1.00800           0
       767 MEMB     5        POPC     H16Y     HAL3     0.900000E-01   1.00800           0
       768 MEMB     5        POPC     H16Z     HAL3     0.900000E-01   1.00800           0
       769 MEMB     6        POPC     N        NTL     -0.600000       14.0070           0
       770 MEMB     6        POPC     C12      CTL2    -0.100000       12.0110           0
       771 MEMB     6        POPC     H12A     HL       0.250000       1.00800           0
       772 MEMB     6        POPC     H12B     HL       0.250000       1.00800           0
       773 MEMB     6        POPC     C13      CTL5    -0.350000       12.0110           0
       774 MEMB     6        POPC     H13A     HL       0.250000       1.00800           0
       775 MEMB     6        POPC     H13B     HL       0.250000       1.00800           0
       776 MEMB     6        POPC     H13C     HL       0.250000       1.00800           0
       777 MEMB     6        POPC     C14      CTL5    -0.350000       12.0110           0
       778 MEMB     6        POPC     H14A     HL       0.250000       1.00800           0
       779 MEMB     6        POPC     H14B     HL       0.250000       1.00800           0
       780 MEMB     6        POPC     H14C     HL       0.250000       1.00800           0
       781 MEMB     6        POPC     C15      CTL5    -0.350000       12.0110           0
       782 MEMB     6        POPC     H15A     HL       0.250000       1.00800           0
       783 MEMB     6        POPC     H15B     HL       0.250000       1.00800           0
       784 MEMB     6        POPC     H15C     HL       0.250000       1.00800           0
       785 MEMB     6        POPC     C11      CTL2    -0.800000E-01   12.0110           0
       786 MEMB     6        POPC     H11A     HAL2     0.900000E-01   1.00800           0
       787 MEMB     6        POPC     H11B     HAL2     0.900000E-01   1.00800           0
       788 MEMB     6        POPC     P        PL       1.500000       30.9740           0
       789 MEMB     6        POPC     O13      O2L     -0.780000       15.9994           0
       790 MEMB     6        POPC     O14      O2L     -0.780000       15.9994           0
       791 MEMB     6        POPC     O12      OSLP    -0.570000       15.9994           0
       792 MEMB     6        POPC     O11      OSLP    -0.570000       15.9994           0
       793 MEMB     6        POPC     C1       CTL2    -0.800000E-01   12.0110           0
       794 MEMB     6        POPC     HA       HAL2     0.900000E-01   1.00800           0
       795 MEMB     6        POPC     HB       HAL2     0.900000E-01   1.00800           0
       796 MEMB     6        POPC     C2       CTL1     0.170000       12.0110           0
       797 MEMB     6        POPC     HS       HAL1     0.900000E-01   1.00800           0
       798 MEMB     6        POPC     O21      OSL     -0.490000       15.9994           0
       799 MEMB     6        POPC     C21      CL       0.900000       12.0110           0
       800 MEMB     6        POPC     O22      OBL     -0.630000       15.9994           0
       801 MEMB     6        POPC     C22      CTL2    -0.220000       12.0110           0
       802 MEMB     6        POPC     H2R      HAL2     0.900000E-01   1.00800           0
       803 MEMB     6        POPC     H2S      HAL2     0.900000E-01   1.00800           0
       804 MEMB     6        POPC     C3       CTL2     0.800000E-01   12.0110           0
       805 MEMB     6        POPC     HX       HAL2     0.900000E-01   1.00800           0
       806 MEMB     6        POPC     HY       HAL2     0.900000E-01   1.00800           0
       807 MEMB     6        POPC     O31      OSL     -0.490000       15.9994           0
       808 MEMB     6        POPC     C31      CL       0.900000       12.0110           0
       809 MEMB     6        POPC     O32      OBL     -0.630000       15.9994           0
       810 MEMB     6        POPC     C32      CTL2    -0.220000       12.0110           0
       811 MEMB     6        POPC     H2X      HAL2     0.900000E-01   1.00800           0
       812 MEMB     6        POPC     H2Y      HAL2     0.900000E-01   1.00800           0
       813 MEMB     6        POPC     C23      CTL2    -0.180000       12.0110           0
       814 MEMB     6        POPC     H3R      HAL2     0.900000E-01   1.00800           0
       815 MEMB     6        POPC     H3S      HAL2     0.900000E-01   1.00800           0
       816 MEMB     6        POPC     C24      CTL2    -0.180000       12.0110           0
       817 MEMB     6        POPC     H4R      HAL2     0.900000E-01   1.00800           0
       818 MEMB     6        POPC     H4S      HAL2     0.900000E-01   1.00800           0
       819 MEMB     6        POPC     C25      CTL2    -0.180000       12.0110           0
       820 MEMB     6        POPC     H5R      HAL2     0.900000E-01   1.00800           0
       821 MEMB     6        POPC     H5S      HAL2     0.900000E-01   1.00800           0
       822 MEMB     6        POPC     C26      CTL2    -0.180000       12.0110           0
       823 MEMB     6        POPC     H6R      HAL2     0.900000E-01   1.00800           0
       824 MEMB     6        POPC     H6S      HAL2     0.900000E-01   1.00800           0
       825 MEMB     6        POPC     C27      CTL2    -0.180000       12.0110           0
       826 MEMB     6        POPC     H7R      HAL2     0.900000E-01   1.00800           0
       827 MEMB     6        POPC     H7S      HAL2     0.900000E-01   1.00800           0
       828 MEMB     6        POPC     C28      CTL2    -0.180000       12.0110           0
       829 MEMB     6        POPC     H8R      HAL2     0.900000E-01   1.00800           0
       830 MEMB     6        POPC     H8S      HAL2     0.900000E-01   1.00800           0
       831 MEMB     6        POPC     C29      CEL1    -0.150000       12.0110           0
       832 MEMB     6        POPC     H91      HEL1     0.150000       1.00800           0
       833 MEMB     6        POPC     C210     CEL1    -0.150000       12.0110           0
       834 MEMB     6        POPC     H101     HEL1     0.150000       1.00800           0
       835 MEMB     6        POPC     C211     CTL2    -0.180000       12.0110           0
       836 MEMB     6        POPC     H11R     HAL2     0.900000E-01   1.00800           0
       837 MEMB     6        POPC     H11S     HAL2     0.900000E-01   1.00800           0
       838 MEMB     6        POPC     C212     CTL2    -0.180000       12.0110           0
       839 MEMB     6        POPC     H12R     HAL2     0.900000E-01   1.00800           0
       840 MEMB     6        POPC     H12S     HAL2     0.900000E-01   1.00800           0
       841 MEMB     6        POPC     C213     CTL2    -0.180000       12.0110           0
       842 MEMB     6        POPC     H13R     HAL2     0.900000E-01   1.00800           0
       843 MEMB     6        POPC     H13S     HAL2     0.900000E-01   1.00800           0
       844 MEMB     6        POPC     C214     CTL2    -0.180000       12.0110           0
       845 MEMB     6        POPC     H14R     HAL2     0.900000E-01   1.00800           0
       846 MEMB     6        POPC     H14S     HAL2     0.900000E-01   1.00800           0
       847 MEMB     6        POPC     C215     CTL2    -0.180000       12.0110           0
       848 MEMB     6        POPC     H15R     HAL2     0.900000E-01   1.00800           0
       849 MEMB     6        POPC     H15S     HAL2     0.900000E-01   1.00800           0
       850 MEMB     6        POPC     C216     CTL2    -0.180000       12.0110           0
       851 MEMB     6        POPC     H16R     HAL2     0.900000E-01   1.00800           0
       852 MEMB     6        POPC     H16S     HAL2     0.900000E-01   1.00800           0
       853 MEMB     6        POPC     C217     CTL2    -0.180000       12.0110           0
       854 MEMB     6        POPC     H17R     HAL2     0.900000E-01   1.00800           0
       855 MEMB     6        POPC     H17S     HAL2     0.900000E-01   1.00800           0
       856 MEMB     6        POPC     C218     CTL3    -0.270000       12.0110           0
       857 MEMB     6        POPC     H18R     HAL3     0.900000E-01   1.00800           0
       858 MEMB     6        POPC     H18S     HAL3     0.900000E-01   1.00800           0
       859 MEMB     6        POPC     H18T     HAL3     0.900000E-01   1.00800           0
       860 MEMB     6        POPC     C33      CTL2    -0.180000       12.0110           0
       861 MEMB     6        POPC     H3X      HAL2     0.900000E-01   1.00800           0
       862 MEMB     6        POPC     H3Y      HAL2     0.900000E-01   1.00800           0
       863 MEMB     6        POPC     C34      CTL2    -0.180000       12.0110           0
       864 MEMB     6        POPC     H4X      HAL2     0.900000E-01   1.00800           0
       865 MEMB     6        POPC     H4Y      HAL2     0.900000E-01   1.00800           0
       866 MEMB     6        POPC     C35      CTL2    -0.180000       12.0110           0
       867 MEMB     6        POPC     H5X      HAL2     0.900000E-01   1.00800           0
       868 MEMB     6        POPC     H5Y      HAL2     0.900000E-01   1.00800           0
       869 MEMB     6        POPC     C36      CTL2    -0.180000       12.0110           0
       870 MEMB     6        POPC     H6X      HAL2     0.900000E-01   1.00800           0
       871 MEMB     6        POPC     H6Y      HAL2     0.900000E-01   1.00800           0
       872 MEMB     6        POPC     C37      CTL2    -0.180000       12.0110           0
       873 MEMB     6        POPC     H7X      HAL2     0.900000E-01   1.00800           0
       874 MEMB     6        POPC     H7Y      HAL2     0.900000E-01   1.00800           0
       875 MEMB     6        POPC     C38      CTL2    -0.180000       12.0110           0
       876 MEMB     6        POPC     H8X      HAL2     0.900000E-01   1.00800           0
       877 MEMB     6        POPC     H8Y      HAL2     0.900000E-01   1.00800           0
       878 MEMB     6        POPC     C39      CTL2    -0.180000       12.0110           0
       879 MEMB     6        POPC     H9X      HAL2     0.900000E-01   1.00800           0
       880 MEMB     6        POPC     H9Y      HAL2     0.900000E-01   1.00800           0
       881 MEMB     6        POPC     C310     CTL2    -0.180000       12.0110           0
       882 MEMB     6        POPC     H10X     HAL2     0.900000E-01   1.00800           0
       883 MEMB     6        POPC     H10Y     HAL2     0.900000E-01   1.00800           0
       884 MEMB     6        POPC     C311     CTL2    -0.180000       12.0110           0
       885 MEMB     6        POPC     H11X     HAL2     0.900000E-01   1.00800           0
       886 MEMB     6        POPC     H11Y     HAL2     0.900000E-01   1.00800           0
       887 MEMB     6        POPC     C312     CTL2    -0.180000       12.0110           0
       888 MEMB     6        POPC     H12X     HAL2     0.900000E-01   1.00800           0
       889 MEMB     6        POPC     H12Y     HAL2     0.900000E-01   1.00800           0
       890 MEMB     6        POPC     C313     CTL2    -0.180000       12.0110           0
       891 MEMB     6        POPC     H13X     HAL2     0.900000E-01   1.00800           0
       892 MEMB     6        POPC     H13Y     HAL2     0.900000E-01   1.00800           0
       893 MEMB     6        POPC     C314     CTL2    -0.180000       12.0110           0
       894 MEMB     6        POPC     H14X     HAL2     0.900000E-01   1.00800           0
       895 MEMB     6        POPC     H14Y     HAL2     0.900000E-01   1.00800           0
       896 MEMB     6        POPC     C315     CTL2    -0.180000       12.0110           0
       897 MEMB     6        POPC     H15X     HAL2     0.900000E-01   1.00800           0
       898 MEMB     6        POPC     H15Y     HAL2     0.900000E-01   1.00800           0
       899 MEMB     6        POPC     C316     CTL3    -0.270000       12.0110           0
       900 MEMB     6        POPC     H16X     HAL3     0.900000E-01   1.00800           0
       901 MEMB     6        POPC     H16Y     HAL3     0.900000E-01   1.00800           0
       902 MEMB     6        POPC     H16Z     HAL3     0.900000E-01   1.00800           0
       903 MEMB     7        POPS     N        NH3L    -0.300000       14.0070           0
       904 MEMB     7        POPS     HN1      HCL      0.330000       1.00800           0
       905 MEMB     7        POPS     HN2      HCL      0.330000       1.00800           0
       906 MEMB     7        POPS     HN3      HCL      0.330000       1.00800           0
       907 MEMB     7        POPS     C12      CTL1     0.210000       12.0110           0
       908 MEMB     7        POPS     H12A     HBL      0.100000       1.00800           0
       909 MEMB     7        POPS     C13      CCL      0.340000       12.0110           0
       910 MEMB     7        POPS     O13A     OCL     -0.670000       15.9994           0
       911 MEMB     7        POPS     O13B     OCL     -0.670000       15.9994           0
       912 MEMB     7        POPS     C11      CTL2    -0.800000E-01   12.0110           0
       913 MEMB     7        POPS     H11A     HAL2     0.900000E-01   1.00800           0
       914 MEMB     7        POPS     H11B     HAL2     0.900000E-01   1.00800           0
       915 MEMB     7        POPS     P        PL       1.500000       30.9740           0
       916 MEMB     7        POPS     O13      O2L     -0.780000       15.9994           0
       917 MEMB     7        POPS     O14      O2L     -0.780000       15.9994           0
       918 MEMB     7        POPS     O12      OSLP    -0.570000       15.9994           0
       919 MEMB     7        POPS     O11      OSLP    -0.570000       15.9994           0
       920 MEMB     7        POPS     C1       CTL2    -0.800000E-01   12.0110           0
       921 MEMB     7        POPS     HA       HAL2     0.900000E-01   1.00800           0
       922 MEMB     7        POPS     HB       HAL2     0.900000E-01   1.00800           0
       923 MEMB     7        POPS     C2       CTL1     0.170000       12.0110           0
       924 MEMB     7        POPS     HS       HAL1     0.900000E-01   1.00800           0
       925 MEMB     7        POPS     O21      OSL     -0.490000       15.9994           0
       926 MEMB     7        POPS     C21      CL       0.900000       12.0110           0
       927 MEMB     7        POPS     O22      OBL     -0.630000       15.9994           0
       928 MEMB     7        POPS     C22      CTL2    -0.220000       12.0110           0
       929 MEMB     7        POPS     H2R      HAL2     0.900000E-01   1.00800           0
       930 MEMB     7        POPS     H2S      HAL2     0.900000E-01   1.00800           0
       931 MEMB     7        POPS     C3       CTL2     0.800000E-01   12.0110           0
       932 MEMB     7        POPS     HX       HAL2     0.900000E-01   1.00800           0
       933 MEMB     7        POPS     HY       HAL2     0.900000E-01   1.00800           0
       934 MEMB     7        POPS     O31      OSL     -0.490000       15.9994           0
       935 MEMB     7        POPS     C31      CL       0.900000       12.0110           0
       936 MEMB     7        POPS     O32      OBL     -0.630000       15.9994           0
       937 MEMB     7        POPS     C32      CTL2    -0.220000       12.0110           0
       938 MEMB     7        POPS     H2X      HAL2     0.900000E-01   1.00800           0
       939 MEMB     7        POPS     H2Y      HAL2     0.900000E-01   1.00800           0
       940 MEMB     7        POPS     C23      CTL2    -0.180000       12.0110           0
       941 MEMB     7        POPS     H3R      HAL2     0.900000E-01   1.00800           0
       942 MEMB     7        POPS     H3S      HAL2     0.900000E-01   1.00800           0
       943 MEMB     7        POPS     C24      CTL2    -0.180000       12.0110           0
       944 MEMB     7        POPS     H4R      HAL2     0.900000E-01   1.00800           0
       945 MEMB     7        POPS     H4S      HAL2     0.900000E-01   1.00800           0
       946 MEMB     7        POPS     C25      CTL2    -0.180000       12.0110           0
       947 MEMB     7        POPS     H5R      HAL2     0.900000E-01   1.00800           0
       948 MEMB     7        POPS     H5S      HAL2     0.900000E-01   1.00800           0
       949 MEMB     7        POPS     C26      CTL2    -0.180000       12.0110           0
       950 MEMB     7        POPS     H6R      HAL2     0.900000E-01   1.00800           0
       951 MEMB     7        POPS     H6S      HAL2     0.900000E-01   1.00800           0
       952 MEMB     7        POPS     C27      CTL2    -0.180000       12.0110           0
       953 MEMB     7        POPS     H7R      HAL2     0.900000E-01   1.00800           0
       954 MEMB     7        POPS     H7S      HAL2     0.900000E-01   1.00800           0
       955 MEMB     7        POPS     C28      CTL2    -0.180000       12.0110           0
       956 MEMB     7        POPS     H8R      HAL2     0.900000E-01   1.00800           0
       957 MEMB     7        POPS     H8S      HAL2     0.900000E-01   1.00800           0
       958 MEMB     7        POPS     C29      CEL1    -0.150000       12.0110           0
       959 MEMB     7        POPS     H91      HEL1     0.150000       1.00800           0
       960 MEMB     7        POPS     C210     CEL1    -0.150000       12.0110           0
       961 MEMB     7        POPS     H101     HEL1     0.150000       1.00800           0
       962 MEMB     7        POPS     C211     CTL2    -0.180000       12.0110           0
       963 MEMB     7        POPS     H11R     HAL2     0.900000E-01   1.00800           0
       964 MEMB     7        POPS     H11S     HAL2     0.900000E-01   1.00800           0
       965 MEMB     7        POPS     C212     CTL2    -0.180000       12.0110           0
       966 MEMB     7        POPS     H12R     HAL2     0.900000E-01   1.00800           0
       967 MEMB     7        POPS     H12S     HAL2     0.900000E-01   1.00800           0
       968 MEMB     7        POPS     C213     CTL2    -0.180000       12.0110           0
       969 MEMB     7        POPS     H13R     HAL2     0.900000E-01   1.00800           0
       970 MEMB     7        POPS     H13S     HAL2     0.900000E-01   1.00800           0
       971 MEMB     7        POPS     C214     CTL2    -0.180000       12.0110           0
       972 MEMB     7        POPS     H14R     HAL2     0.900000E-01   1.00800           0
       973 MEMB     7        POPS     H14S     HAL2     0.900000E-01   1.00800           0
       974 MEMB     7        POPS     C215     CTL2    -0.180000       12.0110           0
       975 MEMB     7        POPS     H15R     HAL2     0.900000E-01   1.00800           0
       976 MEMB     7        POPS     H15S     HAL2     0.900000E-01   1.00800           0
       977 MEMB     7        POPS     C216     CTL2    -0.180000       12.0110           0
       978 MEMB     7        POPS     H16R     HAL2     0.900000E-01   1.00800           0
       979 MEMB     7        POPS     H16S     HAL2     0.900000E-01   1.00800           0
       980 MEMB     7        POPS     C217     CTL2    -0.180000       12.0110           0
       981 MEMB     7        POPS     H17R     HAL2     0.900000E-01   1.00800           0
       982 MEMB     7        POPS     H17S     HAL2     0.900000E-01   1.00800           0
       983 MEMB     7        POPS     C218     CTL3    -0.270000       12.0110           0
       984 MEMB     7        POPS     H18R     HAL3     0.900000E-01   1.00800           0
       985 MEMB     7        POPS     H18S     HAL3     0.900000E-01   1.00800           0
       986 MEMB     7        POPS     H18T     HAL3     0.900000E-01   1.00800           0
       987 MEMB     7        POPS     C33      CTL2    -0.180000       12.0110           0
       988 MEMB     7        POPS     H3X      HAL2     0.900000E-01   1.00800           0
       989 MEMB     7        POPS     H3Y      HAL2     0.900000E-01   1.00800           0
       990 MEMB     7        POPS     C34      CTL2    -0.180000       12.0110           0
       991 MEMB     7        POPS     H4X      HAL2     0.900000E-01   1.00800           0
       992 MEMB     7        POPS     H4Y      HAL2     0.900000E-01   1.00800           0
       993 MEMB     7        POPS     C35      CTL2    -0.180000       12.0110           0
       994 MEMB     7        POPS     H5X      HAL2     0.900000E-01   1.00800           0
       995 MEMB     7        POPS     H5Y      HAL2     0.900000E-01   1.00800           0
       996 MEMB     7        POPS     C36      CTL2    -0.180000       12.0110           0
       997 MEMB     7        POPS     H6X      HAL2     0.900000E-01   1.00800           0
       998 MEMB     7        POPS     H6Y      HAL2     0.900000E-01   1.00800           0
       999 MEMB     7        POPS     C37      CTL2    -0.180000       12.0110           0
      1000 MEMB     7        POPS     H7X      HAL2     0.900000E-01   1.00800           0
      1001 MEMB     7        POPS     H7Y      HAL2     0.900000E-01   1.00800           0
      1002 MEMB     7        POPS     C38      CTL2    -0.180000       12.0110           0
      1003 MEMB     7        POPS     H8X      HAL2     0.900000E-01   1.00800           0
      1004 MEMB     7        POPS     H8Y      HAL2     0.900000E-01   1.00800           0
      1005 MEMB     7        POPS     C39      CTL2    -0.180000       12.0110           0
      1006 MEMB     7        POPS     H9X      HAL2     0.900000E-01   1.00800           0
      1007 MEMB     7        POPS     H9Y      HAL2     0.900000E-01   1.00800           0
      1008 MEMB     7        POPS     C310     CTL2    -0.180000       12.0110           0
      1009 MEMB     7        POPS     H10X     HAL2     0.900000E-01   1.00800           0
      1010 MEMB     7        POPS     H10Y     HAL2     0.900000E-01   1.00800           0
      1011 MEMB     7        POPS     C311     CTL2    -0.180000       12.0110           0
      1012 MEMB     7        POPS     H11X     HAL2     0.900000E-01   1.00800           0
      1013 MEMB     7        POPS     H11Y     HAL2     0.900000E-01   1.00800           0
      1014 MEMB     7        POPS     C312     CTL2    -0.180000       12.0110           0
      1015 MEMB     7        POPS     H12X     HAL2     0.900000E-01   1.00800           0
      1016 MEMB     7        POPS     H12Y     HAL2     0.900000E-01   1.00800           0
      1017 MEMB     7        POPS     C313     CTL2    -0.180000       12.0110           0
      1018 MEMB     7        POPS     H13X     HAL2     0.900000E-01   1.00800           0
      1019 MEMB     7        POPS     H13Y     HAL2     0.900000E-01   1.00800           0
      1020 MEMB     7        POPS     C314     CTL2    -0.180000       12.0110           0
      1021 MEMB     7        POPS     H14X     HAL2     0.900000E-01   1.00800           0
      1022 MEMB     7        POPS     H14Y     HAL2     0.900000E-01   1.00800           0
      1023 MEMB     7        POPS     C315     CTL2    -0.180000       12.0110           0
      1024 MEMB     7        POPS     H15X     HAL2     0.900000E-01   1.00800           0
      1025 MEMB     7        POPS     H15Y     HAL2     0.900000E-01   1.00800           0
      1026 MEMB     7        POPS     C316     CTL3    -0.270000       12.0110           0
      1027 MEMB     7        POPS     H16X     HAL3     0.900000E-01   1.00800           0
      1028 MEMB     7        POPS     H16Y     HAL3     0.900000E-01   1.00800           0
      1029 MEMB     7        POPS     H16Z     HAL3     0.900000E-01   1.00800           0
      1030 MEMB     8        POPC     N        NTL     -0.600000       14.0070           0
      1031 MEMB     8        POPC     C12      CTL2    -0.100000       12.0110           0
      1032 MEMB     8        POPC     H12A     HL       0.250000       1.00800           0
      1033 MEMB     8        POPC     H12B     HL       0.250000       1.00800           0
      1034 MEMB     8        POPC     C13      CTL5    -0.350000       12.0110           0
      1035 MEMB     8        POPC     H13A     HL       0.250000       1.00800           0
      1036 MEMB     8        POPC     H13B     HL       0.250000       1.00800           0
      1037 MEMB     8        POPC     H13C     HL       0.250000       1.00800           0
      1038 MEMB     8        POPC     C14      CTL5    -0.350000       12.0110           0
      1039 MEMB     8        POPC     H14A     HL       0.250000       1.00800           0
      1040 MEMB     8        POPC     H14B     HL       0.250000       1.00800           0
      1041 MEMB     8        POPC     H14C     HL       0.250000       1.00800           0
      1042 MEMB     8        POPC     C15      CTL5    -0.350000       12.0110           0
      1043 MEMB     8        POPC     H15A     HL       0.250000       1.00800           0
      1044 MEMB     8        POPC     H15B     HL       0.250000       1.00800           0
      1045 MEMB     8        POPC     H15C     HL       0.250000       1.00800           0
      1046 MEMB     8        POPC     C11      CTL2    -0.800000E-01   12.0110           0
      1047 MEMB     8        POPC     H11A     HAL2     0.900000E-01   1.00800           0
      1048 MEMB     8        POPC     H11B     HAL2     0.900000E-01   1.00800           0
      1049 MEMB     8        POPC     P        PL       1.500000       30.9740           0
      1050 MEMB     8        POPC     O13      O2L     -0.780000       15.9994           0
      1051 MEMB     8        POPC     O14      O2L     -0.780000       15.9994           0
      1052 MEMB     8        POPC     O12      OSLP    -0.570000       15.9994           0
      1053 MEMB     8        POPC     O11      OSLP    -0.570000       15.9994           0
      1054 MEMB     8        POPC     C1       CTL2    -0.800000E-01   12.0110           0
      1055 MEMB     8        POPC     HA       HAL2     0.900000E-01   1.00800           0
      1056 MEMB     8        POPC     HB       HAL2     0.900000E-01   1.00800           0
      1057 MEMB     8        POPC     C2       CTL1     0.170000       12.0110           0
      1058 MEMB     8        POPC     HS       HAL1     0.900000E-01   1.00800           0
      1059 MEMB     8        POPC     O21      OSL     -0.490000       15.9994           0
      1060 MEMB     8        POPC     C21      CL       0.900000       12.0110           0
      1061 MEMB     8        POPC     O22      OBL     -0.630000       15.9994           0
      1062 MEMB     8        POPC     C22      CTL2    -0.220000       12.0110           0
      1063 MEMB     8        POPC     H2R      HAL2     0.900000E-01   1.00800           0
      1064 MEMB     8        POPC     H2S      HAL2     0.900000E-01   1.00800           0
      1065 MEMB     8        POPC     C3       CTL2     0.800000E-01   12.0110           0
      1066 MEMB     8        POPC     HX       HAL2     0.900000E-01   1.00800           0
      1067 MEMB     8        POPC     HY       HAL2     0.900000E-01   1.00800           0
      1068 MEMB     8        POPC     O31      OSL     -0.490000       15.9994           0
      1069 MEMB     8        POPC     C31      CL       0.900000       12.0110           0
      1070 MEMB     8        POPC     O32      OBL     -0.630000       15.9994           0
      1071 MEMB     8        POPC     C32      CTL2    -0.220000       12.0110           0
      1072 MEMB     8        POPC     H2X      HAL2     0.900000E-01   1.00800           0
      1073 MEMB     8        POPC     H2Y      HAL2     0.900000E-01   1.00800           0
      1074 MEMB     8        POPC     C23      CTL2    -0.180000       12.0110           0
      1075 MEMB     8        POPC     H3R      HAL2     0.900000E-01   1.00800           0
      1076 MEMB     8        POPC     H3S      HAL2     0.900000E-01   1.00800           0
      1077 MEMB     8        POPC     C24      CTL2    -0.180000       12.0110           0
      1078 MEMB     8        POPC     H4R      HAL2     0.900000E-01   1.00800           0
      1079 MEMB     8        POPC     H4S      HAL2     0.900000E-01   1.00800           0
      1080 MEMB     8        POPC     C25      CTL2    -0.180000       12.0110           0
      1081 MEMB     8        POPC     H5R      HAL2     0.900000E-01   1.00800           0
      1082 MEMB     8        POPC     H5S      HAL2     0.900000E-01   1.00800           0
      1083 MEMB     8        POPC     C26      CTL2    -0.180000       12.0110           0
      1084 MEMB     8        POPC     H6R      HAL2     0.900000E-01   1.00800           0
      1085 MEMB     8        POPC     H6S      HAL2     0.900000E-01   1.00800           0
      1086 MEMB     8        POPC     C27      CTL2    -0.180000       12.0110           0
      1087 MEMB     8        POPC     H7R      HAL2     0.900000E-01   1.00800           0
      1088 MEMB     8        POPC     H7S      HAL2     0.900000E-01   1.00800           0
      1089 MEMB     8        POPC     C28      CTL2    -0.180000       12.0110           0
      1090 MEMB     8        POPC     H8R      HAL2     0.900000E-01   1.00800           0
      1091 MEMB     8        POPC     H8S      HAL2     0.900000E-01   1.00800           0
      1092 MEMB     8        POPC     C29      CEL1    -0.150000       12.0110           0
      1093 MEMB     8        POPC     H91      HEL1     0.150000       1.00800           0
      1094 MEMB     8        POPC     C210     CEL1    -0.150000       12.0110           0
      1095 MEMB     8        POPC     H101     HEL1     0.150000       1.00800           0
      1096 MEMB     8        POPC     C211     CTL2    -0.180000       12.0110           0
      1097 MEMB     8        POPC     H11R     HAL2     0.900000E-01   1.00800           0
      1098 MEMB     8        POPC     H11S     HAL2     0.900000E-01   1.00800           0
      1099 MEMB     8        POPC     C212     CTL2    -0.180000       12.0110           0
      1100 MEMB     8        POPC     H12R     HAL2     0.900000E-01   1.00800           0
      1101 MEMB     8        POPC     H12S     HAL2     0.900000E-01   1.00800           0
      1102 MEMB     8        POPC     C213     CTL2    -0.180000       12.0110           0
      1103 MEMB     8        POPC     H13R     HAL2     0.900000E-01   1.00800           0
      1104 MEMB     8        POPC     H13S     HAL2     0.900000E-01   1.00800           0
      1105 MEMB     8        POPC     C214     CTL2    -0.180000       12.0110           0
      1106 MEMB     8        POPC     H14R     HAL2     0.900000E-01   1.00800           0
      1107 MEMB     8        POPC     H14S     HAL2     0.900000E-01   1.00800           0
      1108 MEMB     8        POPC     C215     CTL2    -0.180000       12.0110           0
      1109 MEMB     8        POPC     H15R     HAL2     0.900000E-01   1.00800           0
      1110 MEMB     8        POPC     H15S     HAL2     0.900000E-01   1.00800           0
      1111 MEMB     8        POPC     C216     CTL2    -0.180000       12.0110           0
      1112 MEMB     8        POPC     H16R     HAL2     0.900000E-01   1.00800           0
      1113 MEMB     8        POPC     H16S     HAL2     0.900000E-01   1.00800           0
      1114 MEMB     8        POPC     C217     CTL2    -0.180000       12.0110           0
      1115 MEMB     8        POPC     H17R     HAL2     0.900000E-01   1.00800           0
      1116 MEMB     8        POPC     H17S     HAL2     0.900000E-01   1.00800           0
      1117 MEMB     8        POPC     C218     CTL3    -0.270000       12.0110           0
      1118 MEMB     8        POPC     H18R     HAL3     0.900000E-01   1.00800           0
      1119 MEMB     8        POPC     H18S     HAL3     0.900000E-01   1.00800           0
      1120 MEMB     8        POPC     H18T     HAL3     0.900000E-01   1.00800           0
      1121 MEMB     8        POPC     C33      CTL2    -0.180000       12.0110           0
      1122 MEMB     8        POPC     H3X      HAL2     0.900000E-01   1.00800           0
      1123 MEMB     8        POPC     H3Y      HAL2     0.900000E-01   1.00800           0
      1124 MEMB     8        POPC     C34      CTL2    -0.180000       12.0110           0
      1125 MEMB     8        POPC     H4X      HAL2     0.900000E-01   1.00800           0
      1126 MEMB     8        POPC     H4Y      HAL2     0.900000E-01   1.00800           0
      1127 MEMB     8        POPC     C35      CTL2    -0.180000       12.0110           0
      1128 MEMB     8        POPC     H5X      HAL2     0.900000E-01   1.00800           0
      1129 MEMB     8        POPC     H5Y      HAL2     0.900000E-01   1.00800           0
      1130 MEMB     8        POPC     C36      CTL2    -0.180000       12.0110           0
      1131 MEMB     8        POPC     H6X      HAL2     0.900000E-01   1.00800           0
      1132 MEMB     8        POPC     H6Y      HAL2     0.900000E-01   1.00800           0
      1133 MEMB     8        POPC     C37      CTL2    -0.180000       12.0110           0
      1134 MEMB     8        POPC     H7X      HAL2     0.900000E-01   1.00800           0
      1135 MEMB     8        POPC     H7Y      HAL2     0.900000E-01   1.00800           0
      1136 MEMB     8        POPC     C38      CTL2    -0.180000       12.0110           0
      1137 MEMB     8        POPC     H8X      HAL2     0.900000E-01   1.00800           0
      1138 MEMB     8        POPC     H8Y      HAL2     0.900000E-01   1.00800           0
      1139 MEMB     8        POPC     C39      CTL2    -0.180000       12.0110           0
      1140 MEMB     8        POPC     H9X      HAL2     0.900000E-01   1.00800           0
      1141 MEMB     8        POPC     H9Y      HAL2     0.900000E-01   1.00800           0
      1142 MEMB     8        POPC     C310     CTL2    -0.180000       12.0110           0
      1143 MEMB     8        POPC     H10X     HAL2     0.900000E-01   1.00800           0
      1144 MEMB     8        POPC     H10Y     HAL2     0.900000E-01   1.00800           0
      1145 MEMB     8        POPC     C311     CTL2    -0.180000       12.0110           0
      1146 MEMB     8        POPC     H11X     HAL2     0.900000E-01   1.00800           0
      1147 MEMB     8        POPC     H11Y     HAL2     0.900000E-01   1.00800           0
      1148 MEMB     8        POPC     C312     CTL2    -0.180000       12.0110           0
      1149 MEMB     8        POPC     H12X     HAL2     0.900000E-01   1.00800           0
      1150 MEMB     8        POPC     H12Y     HAL2     0.900000E-01   1.00800           0
      1151 MEMB     8        POPC     C313     CTL2    -0.180000       12.0110           0
      1152 MEMB     8        POPC     H13X     HAL2     0.900000E-01   1.00800           0
      1153 MEMB     8        POPC     H13Y     HAL2     0.900000E-01   1.00800           0
      1154 MEMB     8        POPC     C314     CTL2    -0.180000       12.0110           0
      1155 MEMB     8        POPC     H14X     HAL2     0.900000E-01   1.00800           0
      1156 MEMB     8        POPC     H14Y     HAL2     0.900000E-01   1.00800           0
      1157 MEMB     8        POPC     C315     CTL2    -0.180000       12.0110           0
      1158 MEMB     8        POPC     H15X     HAL2     0.900000E-01   1.00800           0
      1159 MEMB     8        POPC     H15Y     HAL2     0.900000E-01   1.00800           0
      1160 MEMB     8        POPC     C316     CTL3    -0.270000       12.0110           0
      1161 MEMB     8        POPC     H16X     HAL3     0.900000E-01   1.00800           0
      1162 MEMB     8        POPC     H16Y     HAL3     0.900000E-01   1.00800           0
      1163 MEMB     8        POPC     H16Z     HAL3     0.900000E-01   1.00800           0
      1164 MEMB     9        POPC     N        NTL     -0.600000       14.0070           0
      1165 MEMB     9        POPC     C12      CTL2    -0.100000       12.0110           0
      1166 MEMB     9        POPC     H12A     HL       0.250000       1.00800           0
      1167 MEMB     9        POPC     H12B     HL       0.250000       1.00800           0
      1168 MEMB     9        POPC     C13      CTL5    -0.350000       12.0110           0
      1169 MEMB     9        POPC     H13A     HL       0.250000       1.00800           0
      1170 MEMB     9        POPC     H13B     HL       0.250000       1.00800           0
      1171 MEMB     9        POPC     H13C     HL       0.250000       1.00800           0
      1172 MEMB     9        POPC     C14      CTL5    -0.350000       12.0110           0
      1173 MEMB     9        POPC     H14A     HL       0.250000       1.00800           0
      1174 MEMB     9        POPC     H14B     HL       0.250000       1.00800           0
      1175 MEMB     9        POPC     H14C     HL       0.250000       1.00800           0
      1176 MEMB     9        POPC     C15      CTL5    -0.350000       12.0110           0
      1177 MEMB     9        POPC     H15A     HL       0.250000       1.00800           0
      1178 MEMB     9        POPC     H15B     HL       0.250000       1.00800           0
      1179 MEMB     9        POPC     H15C     HL       0.250000       1.00800           0
      1180 MEMB     9        POPC     C11      CTL2    -0.800000E-01   12.0110           0
      1181 MEMB     9        POPC     H11A     HAL2     0.900000E-01   1.00800           0
      1182 MEMB     9        POPC     H11B     HAL2     0.900000E-01   1.00800           0
      1183 MEMB     9        POPC     P        PL       1.500000       30.9740           0
      1184 MEMB     9        POPC     O13      O2L     -0.780000       15.9994           0
      1185 MEMB     9        POPC     O14      O2L     -0.780000       15.9994           0
      1186 MEMB     9        POPC     O12      OSLP    -0.570000       15.9994           0
      1187 MEMB     9        POPC     O11      OSLP    -0.570000       15.9994           0
      1188 MEMB     9        POPC     C1       CTL2    -0.800000E-01   12.0110           0
      1189 MEMB     9        POPC     HA       HAL2     0.900000E-01   1.00800           0
      1190 MEMB     9        POPC     HB       HAL2     0.900000E-01   1.00800           0
      1191 MEMB     9        POPC     C2       CTL1     0.170000       12.0110           0
      1192 MEMB     9        POPC     HS       HAL1     0.900000E-01   1.00800           0
      1193 MEMB     9        POPC     O21      OSL     -0.490000       15.9994           0
      1194 MEMB     9        POPC     C21      CL       0.900000       12.0110           0
      1195 MEMB     9        POPC     O22      OBL     -0.630000       15.9994           0
      1196 MEMB     9        POPC     C22      CTL2    -0.220000       12.0110           0
      1197 MEMB     9        POPC     H2R      HAL2     0.900000E-01   1.00800           0
      1198 MEMB     9        POPC     H2S      HAL2     0.900000E-01   1.00800           0
      1199 MEMB     9        POPC     C3       CTL2     0.800000E-01   12.0110           0
      1200 MEMB     9        POPC     HX       HAL2     0.900000E-01   1.00800           0
      1201 MEMB     9        POPC     HY       HAL2     0.900000E-01   1.00800           0
      1202 MEMB     9        POPC     O31      OSL     -0.490000       15.9994           0
      1203 MEMB     9        POPC     C31      CL       0.900000       12.0110           0
      1204 MEMB     9        POPC     O32      OBL     -0.630000       15.9994           0
      1205 MEMB     9        POPC     C32      CTL2    -0.220000       12.0110           0
      1206 MEMB     9        POPC     H2X      HAL2     0.900000E-01   1.00800           0
      1207 MEMB     9        POPC     H2Y      HAL2     0.900000E-01   1.00800           0
      1208 MEMB     9        POPC     C23      CTL2    -0.180000       12.0110           0
      1209 MEMB     9        POPC     H3R      HAL2     0.900000E-01   1.00800           0
      1210 MEMB     9        POPC     H3S      HAL2     0.900000E-01   1.00800           0
      1211 MEMB     9        POPC     C24      CTL2    -0.180000       12.0110           0
      1212 MEMB     9        POPC     H4R      HAL2     0.900000E-01   1.00800           0
      1213 MEMB     9        POPC     H4S      HAL2     0.900000E-01   1.00800           0
      1214 MEMB     9        POPC     C25      CTL2    -0.180000       12.0110           0
      1215 MEMB     9        POPC     H5R      HAL2     0.900000E-01   1.00800           0
      1216 MEMB     9        POPC     H5S      HAL2     0.900000E-01   1.00800           0
      1217 MEMB     9        POPC     C26      CTL2    -0.180000       12.0110           0
      1218 MEMB     9        POPC     H6R      HAL2     0.900000E-01   1.00800           0
      1219 MEMB     9        POPC     H6S      HAL2     0.900000E-01   1.00800           0
      1220 MEMB     9        POPC     C27      CTL2    -0.180000       12.0110           0
      1221 MEMB     9        POPC     H7R      HAL2     0.900000E-01   1.00800           0
      1222 MEMB     9        POPC     H7S      HAL2     0.900000E-01   1.00800           0
      1223 MEMB     9        POPC     C28      CTL2    -0.180000       12.0110           0
      1224 MEMB     9        POPC     H8R      HAL2     0.900000E-01   1.00800           0
      1225 MEMB     9        POPC     H8S      HAL2     0.900000E-01   1.00800           0
      1226 MEMB     9        POPC     C29      CEL1    -0.150000       12.0110           0
      1227 MEMB     9        POPC     H91      HEL1     0.150000       1.00800           0
      1228 MEMB     9        POPC     C210     CEL1    -0.150000       12.0110           0
      1229 MEMB     9        POPC     H101     HEL1     0.150000       1.00800           0
      1230 MEMB     9        POPC     C211     CTL2    -0.180000       12.0110           0
      1231 MEMB     9        POPC     H11R     HAL2     0.900000E-01   1.00800           0
      1232 MEMB     9        POPC     H11S     HAL2     0.900000E-01   1.00800           0
      1233 MEMB     9        POPC     C212     CTL2    -0.180000       12.0110           0
      1234 MEMB     9        POPC     H12R     HAL2     0.900000E-01   1.00800           0
      1235 MEMB     9        POPC     H12S     HAL2     0.900000E-01   1.00800           0
      1236 MEMB     9        POPC     C213     CTL2    -0.180000       12.0110           0
      1237 MEMB     9        POPC     H13R     HAL2     0.900000E-01   1.00800           0
      1238 MEMB     9        POPC     H13S     HAL2     0.900000E-01   1.00800           0
      1239 MEMB     9        POPC     C214     CTL2    -0.180000       12.0110           0
      1240 MEMB     9        POPC     H14R     HAL2     0.900000E-01   1.00800           0
      1241 MEMB     9        POPC     H14S     HAL2     0.900000E-01   1.00800           0
      1242 MEMB     9        POPC     C215     CTL2    -0.180000       12.0110           0
      1243 MEMB     9        POPC     H15R     HAL2     0.900000E-01   1.00800           0
      1244 MEMB     9        POPC     H15S     HAL2     0.900000E-01   1.00800           0
      1245 MEMB     9        POPC     C216     CTL2    -0.180000       12.0110           0
      1246 MEMB     9        POPC     H16R     HAL2     0.900000E-01   1.00800           0
      1247 MEMB     9        POPC     H16S     HAL2     0.900000E-01   1.00800           0
      1248 MEMB     9        POPC     C217     CTL2    -0.180000       12.0110           0
      1249 MEMB     9        POPC     H17R     HAL2     0.900000E-01   1.00800           0
      1250 MEMB     9        POPC     H17S     HAL2     0.900000E-01   1.00800           0
      1251 MEMB     9        POPC     C218     CTL3    -0.270000       12.0110           0
      1252 MEMB     9        POPC     H18R     HAL3     0.900000E-01   1.00800           0
      1253 MEMB     9        POPC     H18S     HAL3     0.900000E-01   1.00800           0
      1254 MEMB     9        POPC     H18T     HAL3     0.900000E-01   1.00800           0
      1255 MEMB     9        POPC     C33      CTL2    -0.180000       12.0110           0
      1256 MEMB     9        POPC     H3X      HAL2     0.900000E-01   1.00800           0
      1257 MEMB     9        POPC     H3Y      HAL2     0.900000E-01   1.00800           0
      1258 MEMB     9        POPC     C34      CTL2    -0.180000       12.0110           0
      1259 MEMB     9        POPC     H4X      HAL2     0.900000E-01   1.00800           0
      1260 MEMB     9        POPC     H4Y      HAL2     0.900000E-01   1.00800           0
      1261 MEMB     9        POPC     C35      CTL2    -0.180000       12.0110           0
      1262 MEMB     9        POPC     H5X      HAL2     0.900000E-01   1.00800           0
      1263 MEMB     9        POPC     H5Y      HAL2     0.900000E-01   1.00800           0
      1264 MEMB     9        POPC     C36      CTL2    -0.180000       12.0110           0
      1265 MEMB     9        POPC     H6X      HAL2     0.900000E-01   1.00800           0
      1266 MEMB     9        POPC     H6Y      HAL2     0.900000E-01   1.00800           0
      1267 MEMB     9        POPC     C37      CTL2    -0.180000       12.0110           0
      1268 MEMB     9        POPC     H7X      HAL2     0.900000E-01   1.00800           0
      1269 MEMB     9        POPC     H7Y      HAL2     0.900000E-01   1.00800           0
      1270 MEMB     9        POPC     C38      CTL2    -0.180000       12.0110           0
      1271 MEMB     9        POPC     H8X      HAL2     0.900000E-01   1.00800           0
      1272 MEMB     9        POPC     H8Y      HAL2     0.900000E-01   1.00800           0
      1273 MEMB     9        POPC     C39      CTL2    -0.180000       12.0110           0
      1274 MEMB     9        POPC     H9X      HAL2     0.900000E-01   1.00800           0
      1275 MEMB     9        POPC     H9Y      HAL2     0.900000E-01   1.00800           0
      1276 MEMB     9        POPC     C310     CTL2    -0.180000       12.0110           0
      1277 MEMB     9        POPC     H10X     HAL2     0.900000E-01   1.00800           0
      1278 MEMB     9        POPC     H10Y     HAL2     0.900000E-01   1.00800           0
      1279 MEMB     9        POPC     C311     CTL2    -0.180000       12.0110           0
      1280 MEMB     9        POPC     H11X     HAL2     0.900000E-01   1.00800           0
      1281 MEMB     9        POPC     H11Y     HAL2     0.900000E-01   1.00800           0
      1282 MEMB     9        POPC     C312     CTL2    -0.180000       12.0110           0
      1283 MEMB     9        POPC     H12X     HAL2     0.900000E-01   1.00800           0
      1284 MEMB     9        POPC     H12Y     HAL2     0.900000E-01   1.00800           0
      1285 MEMB     9        POPC     C313     CTL2    -0.180000       12.0110           0
      1286 MEMB     9        POPC     H13X     HAL2     0.900000E-01   1.00800           0
      1287 MEMB     9        POPC     H13Y     HAL2     0.900000E-01   1.00800           0
      1288 MEMB     9        POPC     C314     CTL2    -0.180000       12.0110           0
      1289 MEMB     9        POPC     H14X     HAL2     0.900000E-01   1.00800           0
      1290 MEMB     9        POPC     H14Y     HAL2     0.900000E-01   1.00800           0
      1291 MEMB     9        POPC     C315     CTL2    -0.180000       12.0110           0
      1292 MEMB     9        POPC     H15X     HAL2     0.900000E-01   1.00800           0
      1293 MEMB     9        POPC     H15Y     HAL2     0.900000E-01   1.00800           0
      1294 MEMB     9        POPC     C316     CTL3    -0.270000       12.0110           0
      1295 MEMB     9        POPC     H16X     HAL3     0.900000E-01   1.00800           0
      1296 MEMB     9        POPC     H16Y     HAL3     0.900000E-01   1.00800           0
      1297 MEMB     9        POPC     H16Z     HAL3     0.900000E-01   1.00800           0
      1298 MEMB     10       POPC     N        NTL     -0.600000       14.0070           0
      1299 MEMB     10       POPC     C12      CTL2    -0.100000       12.0110           0
      1300 MEMB     10       POPC     H12A     HL       0.250000       1.00800           0
      1301 MEMB     10       POPC     H12B     HL       0.250000       1.00800           0
      1302 MEMB     10       POPC     C13      CTL5    -0.350000       12.0110           0
      1303 MEMB     10       POPC     H13A     HL       0.250000       1.00800           0
      1304 MEMB     10       POPC     H13B     HL       0.250000       1.00800           0
      1305 MEMB     10       POPC     H13C     HL       0.250000       1.00800           0
      1306 MEMB     10       POPC     C14      CTL5    -0.350000       12.0110           0
      1307 MEMB     10       POPC     H14A     HL       0.250000       1.00800           0
      1308 MEMB     10       POPC     H14B     HL       0.250000       1.00800           0
      1309 MEMB     10       POPC     H14C     HL       0.250000       1.00800           0
      1310 MEMB     10       POPC     C15      CTL5    -0.350000       12.0110           0
      1311 MEMB     10       POPC     H15A     HL       0.250000       1.00800           0
      1312 MEMB     10       POPC     H15B     HL       0.250000       1.00800           0
      1313 MEMB     10       POPC     H15C     HL       0.250000       1.00800           0
      1314 MEMB     10       POPC     C11      CTL2    -0.800000E-01   12.0110           0
      1315 MEMB     10       POPC     H11A     HAL2     0.900000E-01   1.00800           0
      1316 MEMB     10       POPC     H11B     HAL2     0.900000E-01   1.00800           0
      1317 MEMB     10       POPC     P        PL       1.500000       30.9740           0
      1318 MEMB     10       POPC     O13      O2L     -0.780000       15.9994           0
      1319 MEMB     10       POPC     O14      O2L     -0.780000       15.9994           0
      1320 MEMB     10       POPC     O12      OSLP    -0.570000       15.9994           0
      1321 MEMB     10       POPC     O11      OSLP    -0.570000       15.9994           0
      1322 MEMB     10       POPC     C1       CTL2    -0.800000E-01   12.0110           0
      1323 MEMB     10       POPC     HA       HAL2     0.900000E-01   1.00800           0
      1324 MEMB     10       POPC     HB       HAL2     0.900000E-01   1.00800           0
      1325 MEMB     10       POPC     C2       CTL1     0.170000       12.0110           0
      1326 MEMB     10       POPC     HS       HAL1     0.900000E-01   1.00800           0
      1327 MEMB     10       POPC     O21      OSL     -0.490000       15.9994           0
      1328 MEMB     10       POPC     C21      CL       0.900000       12.0110           0
      1329 MEMB     10       POPC     O22      OBL     -0.630000       15.9994           0
      1330 MEMB     10       POPC     C22      CTL2    -0.220000       12.0110           0
      1331 MEMB     10       POPC     H2R      HAL2     0.900000E-01   1.00800           0
      1332 MEMB     10       POPC     H2S      HAL2     0.900000E-01   1.00800           0
      1333 MEMB     10       POPC     C3       CTL2     0.800000E-01   12.0110           0
      1334 MEMB     10       POPC     HX       HAL2     0.900000E-01   1.00800           0
      1335 MEMB     10       POPC     HY       HAL2     0.900000E-01   1.00800           0
      1336 MEMB     10       POPC     O31      OSL     -0.490000       15.9994           0
      1337 MEMB     10       POPC     C31      CL       0.900000       12.0110           0
      1338 MEMB     10       POPC     O32      OBL     -0.630000       15.9994           0
      1339 MEMB     10       POPC     C32      CTL2    -0.220000       12.0110           0
      1340 MEMB     10       POPC     H2X      HAL2     0.900000E-01   1.00800           0
      1341 MEMB     10       POPC     H2Y      HAL2     0.900000E-01   1.00800           0
      1342 MEMB     10       POPC     C23      CTL2    -0.180000       12.0110           0
      1343 MEMB     10       POPC     H3R      HAL2     0.900000E-01   1.00800           0
      1344 MEMB     10       POPC     H3S      HAL2     0.900000E-01   1.00800           0
      1345 MEMB     10       POPC     C24      CTL2    -0.180000       12.0110           0
      1346 MEMB     10       POPC     H4R      HAL2     0.900000E-01   1.00800           0
      1347 MEMB     10       POPC     H4S      HAL2     0.900000E-01   1.00800           0
      1348 MEMB     10       POPC     C25      CTL2    -0.180000       12.0110           0
      1349 MEMB     10       POPC     H5R      HAL2     0.900000E-01   1.00800           0
      1350 MEMB     10       POPC     H5S      HAL2     0.900000E-01   1.00800           0
      1351 MEMB     10       POPC     C26      CTL2    -0.180000       12.0110           0
      1352 MEMB     10       POPC     H6R      HAL2     0.900000E-01   1.00800           0
      1353 MEMB     10       POPC     H6S      HAL2     0.900000E-01   1.00800           0
      1354 MEMB     10       POPC     C27      CTL2    -0.180000       12.0110           0
      1355 MEMB     10       POPC     H7R      HAL2     0.900000E-01   1.00800           0
      1356 MEMB     10       POPC     H7S      HAL2     0.900000E-01   1.00800           0
      1357 MEMB     10       POPC     C28      CTL2    -0.180000       12.0110           0
      1358 MEMB     10       POPC     H8R      HAL2     0.900000E-01   1.00800           0
      1359 MEMB     10       POPC     H8S      HAL2     0.900000E-01   1.00800           0
      1360 MEMB     10       POPC     C29      CEL1    -0.150000       12.0110           0
      1361 MEMB     10       POPC     H91      HEL1     0.150000       1.00800           0
      1362 MEMB     10       POPC     C210     CEL1    -0.150000       12.0110           0
      1363 MEMB     10       POPC     H101     HEL1     0.150000       1.00800           0
      1364 MEMB     10       POPC     C211     CTL2    -0.180000       12.0110           0
      1365 MEMB     10       POPC     H11R     HAL2     0.900000E-01   1.00800           0
      1366 MEMB     10       POPC     H11S     HAL2     0.900000E-01   1.00800           0
      1367 MEMB     10       POPC     C212     CTL2    -0.180000       12.0110           0
      1368 MEMB     10       POPC     H12R     HAL2     0.900000E-01   1.00800           0
      1369 MEMB     10       POPC     H12S     HAL2     0.900000E-01   1.00800           0
      1370 MEMB     10       POPC     C213     CTL2    -0.180000       12.0110           0
      1371 MEMB     10       POPC     H13R     HAL2     0.900000E-01   1.00800           0
      1372 MEMB     10       POPC     H13S     HAL2     0.900000E-01   1.00800           0
      1373 MEMB     10       POPC     C214     CTL2    -0.180000       12.0110           0
      1374 MEMB     10       POPC     H14R     HAL2     0.900000E-01   1.00800           0
      1375 MEMB     10       POPC     H14S     HAL2     0.900000E-01   1.00800           0
      1376 MEMB     10       POPC     C215     CTL2    -0.180000       12.0110           0
      1377 MEMB     10       POPC     H15R     HAL2     0.900000E-01   1.00800           0
      1378 MEMB     10       POPC     H15S     HAL2     0.900000E-01   1.00800           0
      1379 MEMB     10       POPC     C216     CTL2    -0.180000       12.0110           0
      1380 MEMB     10       POPC     H16R     HAL2     0.900000E-01   1.00800           0
      1381 MEMB     10       POPC     H16S     HAL2     0.900000E-01   1.00800           0
      1382 MEMB     10       POPC     C217     CTL2    -0.180000       12.0110           0
      1383 MEMB     10       POPC     H17R     HAL2     0.900000E-01   1.00800           0
      1384 MEMB     10       POPC     H17S     HAL2     0.900000E-01   1.00800           0
      1385 MEMB     10       POPC     C218     CTL3    -0.270000       12.0110           0
      1386 MEMB     10       POPC     H18R     HAL3     0.900000E-01   1.00800           0
      1387 MEMB     10       POPC     H18S     HAL3     0.900000E-01   1.00800           0
      1388 MEMB     10       POPC     H18T     HAL3     0.900000E-01   1.00800           0
      1389 MEMB     10       POPC     C33      CTL2    -0.180000       12.0110           0
      1390 MEMB     10       POPC     H3X      HAL2     0.900000E-01   1.00800           0
      1391 MEMB     10       POPC     H3Y      HAL2     0.900000E-01   1.00800           0
      1392 MEMB     10       POPC     C34      CTL2    -0.180000       12.0110           0
      1393 MEMB     10       POPC     H4X      HAL2     0.900000E-01   1.00800           0
      1394 MEMB     10       POPC     H4Y      HAL2     0.900000E-01   1.00800           0
      1395 MEMB     10       POPC     C35      CTL2    -0.180000       12.0110           0
      1396 MEMB     10       POPC     H5X      HAL2     0.900000E-01   1.00800           0
      1397 MEMB     10       POPC     H5Y      HAL2     0.900000E-01   1.00800           0
      1398 MEMB     10       POPC     C36      CTL2    -0.180000       12.0110           0
      1399 MEMB     10       POPC     H6X      HAL2     0.900000E-01   1.00800           0
      1400 MEMB     10       POPC     H6Y      HAL2     0.900000E-01   1.00800           0
      1401 MEMB     10       POPC     C37      CTL2    -0.180000       12.0110           0
      1402 MEMB     10       POPC     H7X      HAL2     0.900000E-01   1.00800           0
      1403 MEMB     10       POPC     H7Y      HAL2     0.900000E-01   1.00800           0
      1404 MEMB     10       POPC     C38      CTL2    -0.180000       12.0110           0
      1405 MEMB     10       POPC     H8X      HAL2     0.900000E-01   1.00800           0
      1406 MEMB     10       POPC     H8Y      HAL2     0.900000E-01   1.00800           0
      1407 MEMB     10       POPC     C39      CTL2    -0.180000       12.0110           0
      1408 MEMB     10       POPC     H9X      HAL2     0.900000E-01   1.00800           0
      1409 MEMB     10       POPC     H9Y      HAL2     0.900000E-01   1.00800           0
      1410 MEMB     10       POPC     C310     CTL2    -0.180000       12.0110           0
      1411 MEMB     10       POPC     H10X     HAL2     0.900000E-01   1.00800           0
      1412 MEMB     10       POPC     H10Y     HAL2     0.900000E-01   1.00800           0
      1413 MEMB     10       POPC     C311     CTL2    -0.180000       12.0110           0
      1414 MEMB     10       POPC     H11X     HAL2     0.900000E-01   1.00800           0
      1415 MEMB     10       POPC     H11Y     HAL2     0.900000E-01   1.00800           0
      1416 MEMB     10       POPC     C312     CTL2    -0.180000       12.0110           0
      1417 MEMB     10       POPC     H12X     HAL2     0.900000E-01   1.00800           0
      1418 MEMB     10       POPC     H12Y     HAL2     0.900000E-01   1.00800           0
      1419 MEMB     10       POPC     C313     CTL2    -0.180000       12.0110           0
      1420 MEMB     10       POPC     H13X     HAL2     0.900000E-01   1.00800           0
      1421 MEMB     10       POPC     H13Y     HAL2     0.900000E-01   1.00800           0
      1422 MEMB     10       POPC     C314     CTL2    -0.180000       12.0110           0
      1423 MEMB     10       POPC     H14X     HAL2     0.900000E-01   1.00800           0
      1424 MEMB     10       POPC     H14Y     HAL2     0.900000E-01   1.00800           0
      1425 MEMB     10       POPC     C315     CTL2    -0.180000       12.0110           0
      1426 MEMB     10       POPC     H15X     HAL2     0.900000E-01   1.00800           0
      1427 MEMB     10       POPC     H15Y     HAL2     0.900000E-01   1.00800           0
      1428 MEMB     10       POPC     C316     CTL3    -0.270000       12.0110           0
      1429 MEMB     10       POPC     H16X     HAL3     0.900000E-01   1.00800           0
      1430 MEMB     10       POPC     H16Y     HAL3     0.900000E-01   1.00800           0
      1431 MEMB     10       POPC     H16Z     HAL3     0.900000E-01   1.00800           0
      1432 MEMB     11       POPC     N        NTL     -0.600000       14.0070           0
      1433 MEMB     11       POPC     C12      CTL2    -0.100000       12.0110           0
      1434 MEMB     11       POPC     H12A     HL       0.250000       1.00800           0
      1435 MEMB     11       POPC     H12B     HL       0.250000       1.00800           0
      1436 MEMB     11       POPC     C13      CTL5    -0.350000       12.0110           0
      1437 MEMB     11       POPC     H13A     HL       0.250000       1.00800           0
      1438 MEMB     11       POPC     H13B     HL       0.250000       1.00800           0
      1439 MEMB     11       POPC     H13C     HL       0.250000       1.00800           0
      1440 MEMB     11       POPC     C14      CTL5    -0.350000       12.0110           0
      1441 MEMB     11       POPC     H14A     HL       0.250000       1.00800           0
      1442 MEMB     11       POPC     H14B     HL       0.250000       1.00800           0
      1443 MEMB     11       POPC     H14C     HL       0.250000       1.00800           0
      1444 MEMB     11       POPC     C15      CTL5    -0.350000       12.0110           0
      1445 MEMB     11       POPC     H15A     HL       0.250000       1.00800           0
      1446 MEMB     11       POPC     H15B     HL       0.250000       1.00800           0
      1447 MEMB     11       POPC     H15C     HL       0.250000       1.00800           0
      1448 MEMB     11       POPC     C11      CTL2    -0.800000E-01   12.0110           0
      1449 MEMB     11       POPC     H11A     HAL2     0.900000E-01   1.00800           0
      1450 MEMB     11       POPC     H11B     HAL2     0.900000E-01   1.00800           0
      1451 MEMB     11       POPC     P        PL       1.500000       30.9740           0
      1452 MEMB     11       POPC     O13      O2L     -0.780000       15.9994           0
      1453 MEMB     11       POPC     O14      O2L     -0.780000       15.9994           0
      1454 MEMB     11       POPC     O12      OSLP    -0.570000       15.9994           0
      1455 MEMB     11       POPC     O11      OSLP    -0.570000       15.9994           0
      1456 MEMB     11       POPC     C1       CTL2    -0.800000E-01   12.0110           0
      1457 MEMB     11       POPC     HA       HAL2     0.900000E-01   1.00800           0
      1458 MEMB     11       POPC     HB       HAL2     0.900000E-01   1.00800           0
      1459 MEMB     11       POPC     C2       CTL1     0.170000       12.0110           0
      1460 MEMB     11       POPC     HS       HAL1     0.900000E-01   1.00800           0
      1461 MEMB     11       POPC     O21      OSL     -0.490000       15.9994           0
      1462 MEMB     11       POPC     C21      CL       0.900000       12.0110           0
      1463 MEMB     11       POPC     O22      OBL     -0.630000       15.9994           0
      1464 MEMB     11       POPC     C22      CTL2    -0.220000       12.0110           0
      1465 MEMB     11       POPC     H2R      HAL2     0.900000E-01   1.00800           0
      1466 MEMB     11       POPC     H2S      HAL2     0.900000E-01   1.00800           0
      1467 MEMB     11       POPC     C3       CTL2     0.800000E-01   12.0110           0
      1468 MEMB     11       POPC     HX       HAL2     0.900000E-01   1.00800           0
      1469 MEMB     11       POPC     HY       HAL2     0.900000E-01   1.00800           0
      1470 MEMB     11       POPC     O31      OSL     -0.490000       15.9994           0
      1471 MEMB     11       POPC     C31      CL       0.900000       12.0110           0
      1472 MEMB     11       POPC     O32      OBL     -0.630000       15.9994           0
      1473 MEMB     11       POPC     C32      CTL2    -0.220000       12.0110           0
      1474 MEMB     11       POPC     H2X      HAL2     0.900000E-01   1.00800           0
      1475 MEMB     11       POPC     H2Y      HAL2     0.900000E-01   1.00800           0
      1476 MEMB     11       POPC     C23      CTL2    -0.180000       12.0110           0
      1477 MEMB     11       POPC     H3R      HAL2     0.900000E-01   1.00800           0
      1478 MEMB     11       POPC     H3S      HAL2     0.900000E-01   1.00800           0
      1479 MEMB     11       POPC     C24      CTL2    -0.180000       12.0110           0
      1480 MEMB     11       POPC     H4R      HAL2     0.900000E-01   1.00800           0
      1481 MEMB     11       POPC     H4S      HAL2     0.900000E-01   1.00800           0
      1482 MEMB     11       POPC     C25      CTL2    -0.180000       12.0110           0
      1483 MEMB     11       POPC     H5R      HAL2     0.900000E-01   1.00800           0
      1484 MEMB     11       POPC     H5S      HAL2     0.900000E-01   1.00800           0
      1485 MEMB     11       POPC     C26      CTL2    -0.180000       12.0110           0
      1486 MEMB     11       POPC     H6R      HAL2     0.900000E-01   1.00800           0
      1487 MEMB     11       POPC     H6S      HAL2     0.900000E-01   1.00800           0
      1488 MEMB     11       POPC     C27      CTL2    -0.180000       12.0110           0
      1489 MEMB     11       POPC     H7R      HAL2     0.900000E-01   1.00800           0
      1490 MEMB     11       POPC     H7S      HAL2     0.900000E-01   1.00800           0
      1491 MEMB     11       POPC     C28      CTL2    -0.180000       12.0110           0
      1492 MEMB     11       POPC     H8R      HAL2     0.900000E-01   1.00800           0
      1493 MEMB     11       POPC     H8S      HAL2     0.900000E-01   1.00800           0
      1494 MEMB     11       POPC     C29      CEL1    -0.150000       12.0110           0
      1495 MEMB     11       POPC     H91      HEL1     0.150000       1.00800           0
      1496 MEMB     11       POPC     C210     CEL1    -0.150000       12.0110           0
      1497 MEMB     11       POPC     H101     HEL1     0.150000       1.00800           0
      1498 MEMB     11       POPC     C211     CTL2    -0.180000       12.0110           0
      1499 MEMB     11       POPC     H11R     HAL2     0.900000E-01   1.00800           0
      1500 MEMB     11       POPC     H11S     HAL2     0.900000E-01   1.00800           0
      1501 MEMB     11       POPC     C212     CTL2    -0.180000       12.0110           0
      1502 MEMB     11       POPC     H12R     HAL2     0.900000E-01   1.00800           0
      1503 MEMB     11       POPC     H12S     HAL2     0.900000E-01   1.00800           0
      1504 MEMB     11       POPC     C213     CTL2    -0.180000       12.0110           0
      1505 MEMB     11       POPC     H13R     HAL2     0.900000E-01   1.00800           0
      1506 MEMB     11       POPC     H13S     HAL2     0.900000E-01   1.00800           0
      1507 MEMB     11       POPC     C214     CTL2    -0.180000       12.0110           0
      1508 MEMB     11       POPC     H14R     HAL2     0.900000E-01   1.00800           0
      1509 MEMB     11       POPC     H14S     HAL2     0.900000E-01   1.00800           0
      1510 MEMB     11       POPC     C215     CTL2    -0.180000       12.0110           0
      1511 MEMB     11       POPC     H15R     HAL2     0.900000E-01   1.00800           0
      1512 MEMB     11       POPC     H15S     HAL2     0.900000E-01   1.00800           0
      1513 MEMB     11       POPC     C216     CTL2    -0.180000       12.0110           0
      1514 MEMB     11       POPC     H16R     HAL2     0.900000E-01   1.00800           0
      1515 MEMB     11       POPC     H16S     HAL2     0.900000E-01   1.00800           0
      1516 MEMB     11       POPC     C217     CTL2    -0.180000       12.0110           0
      1517 MEMB     11       POPC     H17R     HAL2     0.900000E-01   1.00800           0
      1518 MEMB     11       POPC     H17S     HAL2     0.900000E-01   1.00800           0
      1519 MEMB     11       POPC     C218     CTL3    -0.270000       12.0110           0
      1520 MEMB     11       POPC     H18R     HAL3     0.900000E-01   1.00800           0
      1521 MEMB     11       POPC     H18S     HAL3     0.900000E-01   1.00800           0
      1522 MEMB     11       POPC     H18T     HAL3     0.900000E-01   1.00800           0
      1523 MEMB     11       POPC     C33      CTL2    -0.180000       12.0110           0
      1524 MEMB     11       POPC     H3X      HAL2     0.900000E-01   1.00800           0
      1525 MEMB     11       POPC     H3Y      HAL2     0.900000E-01   1.00800           0
      1526 MEMB     11       POPC     C34      CTL2    -0.180000       12.0110           0
      1527 MEMB     11       POPC     H4X      HAL2     0.900000E-01   1.00800           0
      1528 MEMB     11       POPC     H4Y      HAL2     0.900000E-01   1.00800           0
      1529 MEMB     11       POPC     C35      CTL2    -0.180000       12.0110           0
      1530 MEMB     11       POPC     H5X      HAL2     0.900000E-01   1.00800           0
      1531 MEMB     11       POPC     H5Y      HAL2     0.900000E-01   1.00800           0
      1532 MEMB     11       POPC     C36      CTL2    -0.180000       12.0110           0
      1533 MEMB     11       POPC     H6X      HAL2     0.900000E-01   1.00800           0
      1534 MEMB     11       POPC     H6Y      HAL2     0.900000E-01   1.00800           0
      1535 MEMB     11       POPC     C37      CTL2    -0.180000       12.0110           0
      1536 MEMB     11       POPC     H7X      HAL2     0.900000E-01   1.00800           0
      1537 MEMB     11       POPC     H7Y      HAL2     0.900000E-01   1.00800           0
      1538 MEMB     11       POPC     C38      CTL2    -0.180000       12.0110           0
      1539 MEMB     11       POPC     H8X      HAL2     0.900000E-01   1.00800           0
      1540 MEMB     11       POPC     H8Y      HAL2     0.900000E-01   1.00800           0
      1541 MEMB     11       POPC     C39      CTL2    -0.180000       12.0110           0
      1542 MEMB     11       POPC     H9X      HAL2     0.900000E-01   1.00800           0
      1543 MEMB     11       POPC     H9Y      HAL2     0.900000E-01   1.00800           0
      1544 MEMB     11       POPC     C310     CTL2    -0.180000       12.0110           0
      1545 MEMB     11       POPC     H10X     HAL2     0.900000E-01   1.00800           0
      1546 MEMB     11       POPC     H10Y     HAL2     0.900000E-01   1.00800           0
      1547 MEMB     11       POPC     C311     CTL2    -0.180000       12.0110           0
      1548 MEMB     11       POPC     H11X     HAL2     0.900000E-01   1.00800           0
      1549 MEMB     11       POPC     H11Y     HAL2     0.900000E-01   1.00800           0
      1550 MEMB     11       POPC     C312     CTL2    -0.180000       12.0110           0
      1551 MEMB     11       POPC     H12X     HAL2     0.900000E-01   1.00800           0
      1552 MEMB     11       POPC     H12Y     HAL2     0.900000E-01   1.00800           0
      1553 MEMB     11       POPC     C313     CTL2    -0.180000       12.0110           0
      1554 MEMB     11       POPC     H13X     HAL2     0.900000E-01   1.00800           0
      1555 MEMB     11       POPC     H13Y     HAL2     0.900000E-01   1.00800           0
      1556 MEMB     11       POPC     C314     CTL2    -0.180000       12.0110           0
      1557 MEMB     11       POPC     H14X     HAL2     0.900000E-01   1.00800           0
      1558 MEMB     11       POPC     H14Y     HAL2     0.900000E-01   1.00800           0
      1559 MEMB     11       POPC     C315     CTL2    -0.180000       12.0110           0
      1560 MEMB     11       POPC     H15X     HAL2     0.900000E-01   1.00800           0
      1561 MEMB     11       POPC     H15Y     HAL2     0.900000E-01   1.00800           0
      1562 MEMB     11       POPC     C316     CTL3    -0.270000       12.0110           0
      1563 MEMB     11       POPC     H16X     HAL3     0.900000E-01   1.00800           0
      1564 MEMB     11       POPC     H16Y     HAL3     0.900000E-01   1.00800           0
      1565 MEMB     11       POPC     H16Z     HAL3     0.900000E-01   1.00800           0
      1566 MEMB     12       POPC     N        NTL     -0.600000       14.0070           0
      1567 MEMB     12       POPC     C12      CTL2    -0.100000       12.0110           0
      1568 MEMB     12       POPC     H12A     HL       0.250000       1.00800           0
      1569 MEMB     12       POPC     H12B     HL       0.250000       1.00800           0
      1570 MEMB     12       POPC     C13      CTL5    -0.350000       12.0110           0
      1571 MEMB     12       POPC     H13A     HL       0.250000       1.00800           0
      1572 MEMB     12       POPC     H13B     HL       0.250000       1.00800           0
      1573 MEMB     12       POPC     H13C     HL       0.250000       1.00800           0
      1574 MEMB     12       POPC     C14      CTL5    -0.350000       12.0110           0
      1575 MEMB     12       POPC     H14A     HL       0.250000       1.00800           0
      1576 MEMB     12       POPC     H14B     HL       0.250000       1.00800           0
      1577 MEMB     12       POPC     H14C     HL       0.250000       1.00800           0
      1578 MEMB     12       POPC     C15      CTL5    -0.350000       12.0110           0
      1579 MEMB     12       POPC     H15A     HL       0.250000       1.00800           0
      1580 MEMB     12       POPC     H15B     HL       0.250000       1.00800           0
      1581 MEMB     12       POPC     H15C     HL       0.250000       1.00800           0
      1582 MEMB     12       POPC     C11      CTL2    -0.800000E-01   12.0110           0
      1583 MEMB     12       POPC     H11A     HAL2     0.900000E-01   1.00800           0
      1584 MEMB     12       POPC     H11B     HAL2     0.900000E-01   1.00800           0
      1585 MEMB     12       POPC     P        PL       1.500000       30.9740           0
      1586 MEMB     12       POPC     O13      O2L     -0.780000       15.9994           0
      1587 MEMB     12       POPC     O14      O2L     -0.780000       15.9994           0
      1588 MEMB     12       POPC     O12      OSLP    -0.570000       15.9994           0
      1589 MEMB     12       POPC     O11      OSLP    -0.570000       15.9994           0
      1590 MEMB     12       POPC     C1       CTL2    -0.800000E-01   12.0110           0
      1591 MEMB     12       POPC     HA       HAL2     0.900000E-01   1.00800           0
      1592 MEMB     12       POPC     HB       HAL2     0.900000E-01   1.00800           0
      1593 MEMB     12       POPC     C2       CTL1     0.170000       12.0110           0
      1594 MEMB     12       POPC     HS       HAL1     0.900000E-01   1.00800           0
      1595 MEMB     12       POPC     O21      OSL     -0.490000       15.9994           0
      1596 MEMB     12       POPC     C21      CL       0.900000       12.0110           0
      1597 MEMB     12       POPC     O22      OBL     -0.630000       15.9994           0
      1598 MEMB     12       POPC     C22      CTL2    -0.220000       12.0110           0
      1599 MEMB     12       POPC     H2R      HAL2     0.900000E-01   1.00800           0
      1600 MEMB     12       POPC     H2S      HAL2     0.900000E-01   1.00800           0
      1601 MEMB     12       POPC     C3       CTL2     0.800000E-01   12.0110           0
      1602 MEMB     12       POPC     HX       HAL2     0.900000E-01   1.00800           0
      1603 MEMB     12       POPC     HY       HAL2     0.900000E-01   1.00800           0
      1604 MEMB     12       POPC     O31      OSL     -0.490000       15.9994           0
      1605 MEMB     12       POPC     C31      CL       0.900000       12.0110           0
      1606 MEMB     12       POPC     O32      OBL     -0.630000       15.9994           0
      1607 MEMB     12       POPC     C32      CTL2    -0.220000       12.0110           0
      1608 MEMB     12       POPC     H2X      HAL2     0.900000E-01   1.00800           0
      1609 MEMB     12       POPC     H2Y      HAL2     0.900000E-01   1.00800           0
      1610 MEMB     12       POPC     C23      CTL2    -0.180000       12.0110           0
      1611 MEMB     12       POPC     H3R      HAL2     0.900000E-01   1.00800           0
      1612 MEMB     12       POPC     H3S      HAL2     0.900000E-01   1.00800           0
      1613 MEMB     12       POPC     C24      CTL2    -0.180000       12.0110           0
      1614 MEMB     12       POPC     H4R      HAL2     0.900000E-01   1.00800           0
      1615 MEMB     12       POPC     H4S      HAL2     0.900000E-01   1.00800           0
      1616 MEMB     12       POPC     C25      CTL2    -0.180000       12.0110           0
      1617 MEMB     12       POPC     H5R      HAL2     0.900000E-01   1.00800           0
      1618 MEMB     12       POPC     H5S      HAL2     0.900000E-01   1.00800           0
      1619 MEMB     12       POPC     C26      CTL2    -0.180000       12.0110           0
      1620 MEMB     12       POPC     H6R      HAL2     0.900000E-01   1.00800           0
      1621 MEMB     12       POPC     H6S      HAL2     0.900000E-01   1.00800           0
      1622 MEMB     12       POPC     C27      CTL2    -0.180000       12.0110           0
      1623 MEMB     12       POPC     H7R      HAL2     0.900000E-01   1.00800           0
      1624 MEMB     12       POPC     H7S      HAL2     0.900000E-01   1.00800           0
      1625 MEMB     12       POPC     C28      CTL2    -0.180000       12.0110           0
      1626 MEMB     12       POPC     H8R      HAL2     0.900000E-01   1.00800           0
      1627 MEMB     12       POPC     H8S      HAL2     0.900000E-01   1.00800           0
      1628 MEMB     12       POPC     C29      CEL1    -0.150000       12.0110           0
      1629 MEMB     12       POPC     H91      HEL1     0.150000       1.00800           0
      1630 MEMB     12       POPC     C210     CEL1    -0.150000       12.0110           0
      1631 MEMB     12       POPC     H101     HEL1     0.150000       1.00800           0
      1632 MEMB     12       POPC     C211     CTL2    -0.180000       12.0110           0
      1633 MEMB     12       POPC     H11R     HAL2     0.900000E-01   1.00800           0
      1634 MEMB     12       POPC     H11S     HAL2     0.900000E-01   1.00800           0
      1635 MEMB     12       POPC     C212     CTL2    -0.180000       12.0110           0
      1636 MEMB     12       POPC     H12R     HAL2     0.900000E-01   1.00800           0
      1637 MEMB     12       POPC     H12S     HAL2     0.900000E-01   1.00800           0
      1638 MEMB     12       POPC     C213     CTL2    -0.180000       12.0110           0
      1639 MEMB     12       POPC     H13R     HAL2     0.900000E-01   1.00800           0
      1640 MEMB     12       POPC     H13S     HAL2     0.900000E-01   1.00800           0
      1641 MEMB     12       POPC     C214     CTL2    -0.180000       12.0110           0
      1642 MEMB     12       POPC     H14R     HAL2     0.900000E-01   1.00800           0
      1643 MEMB     12       POPC     H14S     HAL2     0.900000E-01   1.00800           0
      1644 MEMB     12       POPC     C215     CTL2    -0.180000       12.0110           0
      1645 MEMB     12       POPC     H15R     HAL2     0.900000E-01   1.00800           0
      1646 MEMB     12       POPC     H15S     HAL2     0.900000E-01   1.00800           0
      1647 MEMB     12       POPC     C216     CTL2    -0.180000       12.0110           0
      1648 MEMB     12       POPC     H16R     HAL2     0.900000E-01   1.00800           0
      1649 MEMB     12       POPC     H16S     HAL2     0.900000E-01   1.00800           0
      1650 MEMB     12       POPC     C217     CTL2    -0.180000       12.0110           0
      1651 MEMB     12       POPC     H17R     HAL2     0.900000E-01   1.00800           0
      1652 MEMB     12       POPC     H17S     HAL2     0.900000E-01   1.00800           0
      1653 MEMB     12       POPC     C218     CTL3    -0.270000       12.0110           0
      1654 MEMB     12       POPC     H18R     HAL3     0.900000E-01   1.00800           0
      1655 MEMB     12       POPC     H18S     HAL3     0.900000E-01   1.00800           0
      1656 MEMB     12       POPC     H18T     HAL3     0.900000E-01   1.00800           0
      1657 MEMB     12       POPC     C33      CTL2    -0.180000       12.0110           0
      1658 MEMB     12       POPC     H3X      HAL2     0.900000E-01   1.00800           0
      1659 MEMB     12       POPC     H3Y      HAL2     0.900000E-01   1.00800           0
      1660 MEMB     12       POPC     C34      CTL2    -0.180000       12.0110           0
      1661 MEMB     12       POPC     H4X      HAL2     0.900000E-01   1.00800           0
      1662 MEMB     12       POPC     H4Y      HAL2     0.900000E-01   1.00800           0
      1663 MEMB     12       POPC     C35      CTL2    -0.180000       12.0110           0
      1664 MEMB     12       POPC     H5X      HAL2     0.900000E-01   1.00800           0
      1665 MEMB     12       POPC     H5Y      HAL2     0.900000E-01   1.00800           0
      1666 MEMB     12       POPC     C36      CTL2    -0.180000       12.0110           0
      1667 MEMB     12       POPC     H6X      HAL2     0.900000E-01   1.00800           0
      1668 MEMB     12       POPC     H6Y      HAL2     0.900000E-01   1.00800           0
      1669 MEMB     12       POPC     C37      CTL2    -0.180000       12.0110           0
      1670 MEMB     12       POPC     H7X      HAL2     0.900000E-01   1.00800           0
      1671 MEMB     12       POPC     H7Y      HAL2     0.900000E-01   1.00800           0
      1672 MEMB     12       POPC     C38      CTL2    -0.180000       12.0110           0
      1673 MEMB     12       POPC     H8X      HAL2     0.900000E-01   1.00800           0
      1674 MEMB     12       POPC     H8Y      HAL2     0.900000E-01   1.00800           0
      1675 MEMB     12       POPC     C39      CTL2    -0.180000       12.0110           0
      1676 MEMB     12       POPC     H9X      HAL2     0.900000E-01   1.00800           0
      1677 MEMB     12       POPC     H9Y      HAL2     0.900000E-01   1.00800           0
      1678 MEMB     12       POPC     C310     CTL2    -0.180000       12.0110           0
      1679 MEMB     12       POPC     H10X     HAL2     0.900000E-01   1.00800           0
      1680 MEMB     12       POPC     H10Y     HAL2     0.900000E-01   1.00800           0
      1681 MEMB     12       POPC     C311     CTL2    -0.180000       12.0110           0
      1682 MEMB     12       POPC     H11X     HAL2     0.900000E-01   1.00800           0
      1683 MEMB     12       POPC     H11Y     HAL2     0.900000E-01   1.00800           0
      1684 MEMB     12       POPC     C312     CTL2    -0.180000       12.0110           0
      1685 MEMB     12       POPC     H12X     HAL2     0.900000E-01   1.00800           0
      1686 MEMB     12       POPC     H12Y     HAL2     0.900000E-01   1.00800           0
      1687 MEMB     12       POPC     C313     CTL2    -0.180000       12.0110           0
      1688 MEMB     12       POPC     H13X     HAL2     0.900000E-01   1.00800           0
      1689 MEMB     12       POPC     H13Y     HAL2     0.900000E-01   1.00800           0
      1690 MEMB     12       POPC     C314     CTL2    -0.180000       12.0110           0
      1691 MEMB     12       POPC     H14X     HAL2     0.900000E-01   1.00800           0
      1692 MEMB     12       POPC     H14Y     HAL2     0.900000E-01   1.00800           0
      1693 MEMB     12       POPC     C315     CTL2    -0.180000       12.0110           0
      1694 MEMB     12       POPC     H15X     HAL2     0.900000E-01   1.00800           0
      1695 MEMB     12       POPC     H15Y     HAL2     0.900000E-01   1.00800           0
      1696 MEMB     12       POPC     C316     CTL3    -0.270000       12.0110           0
      1697 MEMB     12       POPC     H16X     HAL3     0.900000E-01   1.00800           0
      1698 MEMB     12       POPC     H16Y     HAL3     0.900000E-01   1.00800           0
      1699 MEMB     12       POPC     H16Z     HAL3     0.900000E-01   1.00800           0
      1700 MEMB     13       POPS     N        NH3L    -0.300000       14.0070           0
      1701 MEMB     13       POPS     HN1      HCL      0.330000       1.00800           0
      1702 MEMB     13       POPS     HN2      HCL      0.330000       1.00800           0
      1703 MEMB     13       POPS     HN3      HCL      0.330000       1.00800           0
      1704 MEMB     13       POPS     C12      CTL1     0.210000       12.0110           0
      1705 MEMB     13       POPS     H12A     HBL      0.100000       1.00800           0
      1706 MEMB     13       POPS     C13      CCL      0.340000       12.0110           0
      1707 MEMB     13       POPS     O13A     OCL     -0.670000       15.9994           0
      1708 MEMB     13       POPS     O13B     OCL     -0.670000       15.9994           0
      1709 MEMB     13       POPS     C11      CTL2    -0.800000E-01   12.0110           0
      1710 MEMB     13       POPS     H11A     HAL2     0.900000E-01   1.00800           0
      1711 MEMB     13       POPS     H11B     HAL2     0.900000E-01   1.00800           0
      1712 MEMB     13       POPS     P        PL       1.500000       30.9740           0
      1713 MEMB     13       POPS     O13      O2L     -0.780000       15.9994           0
      1714 MEMB     13       POPS     O14      O2L     -0.780000       15.9994           0
      1715 MEMB     13       POPS     O12      OSLP    -0.570000       15.9994           0
      1716 MEMB     13       POPS     O11      OSLP    -0.570000       15.9994           0
      1717 MEMB     13       POPS     C1       CTL2    -0.800000E-01   12.0110           0
      1718 MEMB     13       POPS     HA       HAL2     0.900000E-01   1.00800           0
      1719 MEMB     13       POPS     HB       HAL2     0.900000E-01   1.00800           0
      1720 MEMB     13       POPS     C2       CTL1     0.170000       12.0110           0
      1721 MEMB     13       POPS     HS       HAL1     0.900000E-01   1.00800           0
      1722 MEMB     13       POPS     O21      OSL     -0.490000       15.9994           0
      1723 MEMB     13       POPS     C21      CL       0.900000       12.0110           0
      1724 MEMB     13       POPS     O22      OBL     -0.630000       15.9994           0
      1725 MEMB     13       POPS     C22      CTL2    -0.220000       12.0110           0
      1726 MEMB     13       POPS     H2R      HAL2     0.900000E-01   1.00800           0
      1727 MEMB     13       POPS     H2S      HAL2     0.900000E-01   1.00800           0
      1728 MEMB     13       POPS     C3       CTL2     0.800000E-01   12.0110           0
      1729 MEMB     13       POPS     HX       HAL2     0.900000E-01   1.00800           0
      1730 MEMB     13       POPS     HY       HAL2     0.900000E-01   1.00800           0
      1731 MEMB     13       POPS     O31      OSL     -0.490000       15.9994           0
      1732 MEMB     13       POPS     C31      CL       0.900000       12.0110           0
      1733 MEMB     13       POPS     O32      OBL     -0.630000       15.9994           0
      1734 MEMB     13       POPS     C32      CTL2    -0.220000       12.0110           0
      1735 MEMB     13       POPS     H2X      HAL2     0.900000E-01   1.00800           0
      1736 MEMB     13       POPS     H2Y      HAL2     0.900000E-01   1.00800           0
      1737 MEMB     13       POPS     C23      CTL2    -0.180000       12.0110           0
      1738 MEMB     13       POPS     H3R      HAL2     0.900000E-01   1.00800           0
      1739 MEMB     13       POPS     H3S      HAL2     0.900000E-01   1.00800           0
      1740 MEMB     13       POPS     C24      CTL2    -0.180000       12.0110           0
      1741 MEMB     13       POPS     H4R      HAL2     0.900000E-01   1.00800           0
      1742 MEMB     13       POPS     H4S      HAL2     0.900000E-01   1.00800           0
      1743 MEMB     13       POPS     C25      CTL2    -0.180000       12.0110           0
      1744 MEMB     13       POPS     H5R      HAL2     0.900000E-01   1.00800           0
      1745 MEMB     13       POPS     H5S      HAL2     0.900000E-01   1.00800           0
      1746 MEMB     13       POPS     C26      CTL2    -0.180000       12.0110           0
      1747 MEMB     13       POPS     H6R      HAL2     0.900000E-01   1.00800           0
      1748 MEMB     13       POPS     H6S      HAL2     0.900000E-01   1.00800           0
      1749 MEMB     13       POPS     C27      CTL2    -0.180000       12.0110           0
      1750 MEMB     13       POPS     H7R      HAL2     0.900000E-01   1.00800           0
      1751 MEMB     13       POPS     H7S      HAL2     0.900000E-01   1.00800           0
      1752 MEMB     13       POPS     C28      CTL2    -0.180000       12.0110           0
      1753 MEMB     13       POPS     H8R      HAL2     0.900000E-01   1.00800           0
      1754 MEMB     13       POPS     H8S      HAL2     0.900000E-01   1.00800           0
      1755 MEMB     13       POPS     C29      CEL1    -0.150000       12.0110           0
      1756 MEMB     13       POPS     H91      HEL1     0.150000       1.00800           0
      1757 MEMB     13       POPS     C210     CEL1    -0.150000       12.0110           0
      1758 MEMB     13       POPS     H101     HEL1     0.150000       1.00800           0
      1759 MEMB     13       POPS     C211     CTL2    -0.180000       12.0110           0
      1760 MEMB     13       POPS     H11R     HAL2     0.900000E-01   1.00800           0
      1761 MEMB     13       POPS     H11S     HAL2     0.900000E-01   1.00800           0
      1762 MEMB     13       POPS     C212     CTL2    -0.180000       12.0110           0
      1763 MEMB     13       POPS     H12R     HAL2     0.900000E-01   1.00800           0
      1764 MEMB     13       POPS     H12S     HAL2     0.900000E-01   1.00800           0
      1765 MEMB     13       POPS     C213     CTL2    -0.180000       12.0110           0
      1766 MEMB     13       POPS     H13R     HAL2     0.900000E-01   1.00800           0
      1767 MEMB     13       POPS     H13S     HAL2     0.900000E-01   1.00800           0
      1768 MEMB     13       POPS     C214     CTL2    -0.180000       12.0110           0
      1769 MEMB     13       POPS     H14R     HAL2     0.900000E-01   1.00800           0
      1770 MEMB     13       POPS     H14S     HAL2     0.900000E-01   1.00800           0
      1771 MEMB     13       POPS     C215     CTL2    -0.180000       12.0110           0
      1772 MEMB     13       POPS     H15R     HAL2     0.900000E-01   1.00800           0
      1773 MEMB     13       POPS     H15S     HAL2     0.900000E-01   1.00800           0
      1774 MEMB     13       POPS     C216     CTL2    -0.180000       12.0110           0
      1775 MEMB     13       POPS     H16R     HAL2     0.900000E-01   1.00800           0
      1776 MEMB     13       POPS     H16S     HAL2     0.900000E-01   1.00800           0
      1777 MEMB     13       POPS     C217     CTL2    -0.180000       12.0110           0
      1778 MEMB     13       POPS     H17R     HAL2     0.900000E-01   1.00800           0
      1779 MEMB     13       POPS     H17S     HAL2     0.900000E-01   1.00800           0
      1780 MEMB     13       POPS     C218     CTL3    -0.270000       12.0110           0
      1781 MEMB     13       POPS     H18R     HAL3     0.900000E-01   1.00800           0
      1782 MEMB     13       POPS     H18S     HAL3     0.900000E-01   1.00800           0
      1783 MEMB     13       POPS     H18T     HAL3     0.900000E-01   1.00800           0
      1784 MEMB     13       POPS     C33      CTL2    -0.180000       12.0110           0
      1785 MEMB     13       POPS     H3X      HAL2     0.900000E-01   1.00800           0
      1786 MEMB     13       POPS     H3Y      HAL2     0.900000E-01   1.00800           0
      1787 MEMB     13       POPS     C34      CTL2    -0.180000       12.0110           0
      1788 MEMB     13       POPS     H4X      HAL2     0.900000E-01   1.00800           0
      1789 MEMB     13       POPS     H4Y      HAL2     0.900000E-01   1.00800           0
      1790 MEMB     13       POPS     C35      CTL2    -0.180000       12.0110           0
      1791 MEMB     13       POPS     H5X      HAL2     0.900000E-01   1.00800           0
      1792 MEMB     13       POPS     H5Y      HAL2     0.900000E-01   1.00800           0
      1793 MEMB     13       POPS     C36      CTL2    -0.180000       12.0110           0
      1794 MEMB     13       POPS     H6X      HAL2     0.900000E-01   1.00800           0
      1795 MEMB     13       POPS     H6Y      HAL2     0.900000E-01   1.00800           0
      1796 MEMB     13       POPS     C37      CTL2    -0.180000       12.0110           0
      1797 MEMB     13       POPS     H7X      HAL2     0.900000E-01   1.00800           0
      1798 MEMB     13       POPS     H7Y      HAL2     0.900000E-01   1.00800           0
      1799 MEMB     13       POPS     C38      CTL2    -0.180000       12.0110           0
      1800 MEMB     13       POPS     H8X      HAL2     0.900000E-01   1.00800           0
      1801 MEMB     13       POPS     H8Y      HAL2     0.900000E-01   1.00800           0
      1802 MEMB     13       POPS     C39      CTL2    -0.180000       12.0110           0
      1803 MEMB     13       POPS     H9X      HAL2     0.900000E-01   1.00800           0
      1804 MEMB     13       POPS     H9Y      HAL2     0.900000E-01   1.00800           0
      1805 MEMB     13       POPS     C310     CTL2    -0.180000       12.0110           0
      1806 MEMB     13       POPS     H10X     HAL2     0.900000E-01   1.00800           0
      1807 MEMB     13       POPS     H10Y     HAL2     0.900000E-01   1.00800           0
      1808 MEMB     13       POPS     C311     CTL2    -0.180000       12.0110           0
      1809 MEMB     13       POPS     H11X     HAL2     0.900000E-01   1.00800           0
      1810 MEMB     13       POPS     H11Y     HAL2     0.900000E-01   1.00800           0
      1811 MEMB     13       POPS     C312     CTL2    -0.180000       12.0110           0
      1812 MEMB     13       POPS     H12X     HAL2     0.900000E-01   1.00800           0
      1813 MEMB     13       POPS     H12Y     HAL2     0.900000E-01   1.00800           0
      1814 MEMB     13       POPS     C313     CTL2    -0.180000       12.0110           0
      1815 MEMB     13       POPS     H13X     HAL2     0.900000E-01   1.00800           0
      1816 MEMB     13       POPS     H13Y     HAL2     0.900000E-01   1.00800           0
      1817 MEMB     13       POPS     C314     CTL2    -0.180000       12.0110           0
      1818 MEMB     13       POPS     H14X     HAL2     0.900000E-01   1.00800           0
      1819 MEMB     13       POPS     H14Y     HAL2     0.900000E-01   1.00800           0
      1820 MEMB     13       POPS     C315     CTL2    -0.180000       12.0110           0
      1821 MEMB     13       POPS     H15X     HAL2     0.900000E-01   1.00800           0
      1822 MEMB     13       POPS     H15Y     HAL2     0.900000E-01   1.00800           0
      1823 MEMB     13       POPS     C316     CTL3    -0.270000       12.0110           0
      1824 MEMB     13       POPS     H16X     HAL3     0.900000E-01   1.00800           0
      1825 MEMB     13       POPS     H16Y     HAL3     0.900000E-01   1.00800           0
      1826 MEMB     13       POPS     H16Z     HAL3     0.900000E-01   1.00800           0
      1827 MEMB     14       POPC     N        NTL     -0.600000       14.0070           0
      1828 MEMB     14       POPC     C12      CTL2    -0.100000       12.0110           0
      1829 MEMB     14       POPC     H12A     HL       0.250000       1.00800           0
      1830 MEMB     14       POPC     H12B     HL       0.250000       1.00800           0
      1831 MEMB     14       POPC     C13      CTL5    -0.350000       12.0110           0
      1832 MEMB     14       POPC     H13A     HL       0.250000       1.00800           0
      1833 MEMB     14       POPC     H13B     HL       0.250000       1.00800           0
      1834 MEMB     14       POPC     H13C     HL       0.250000       1.00800           0
      1835 MEMB     14       POPC     C14      CTL5    -0.350000       12.0110           0
      1836 MEMB     14       POPC     H14A     HL       0.250000       1.00800           0
      1837 MEMB     14       POPC     H14B     HL       0.250000       1.00800           0
      1838 MEMB     14       POPC     H14C     HL       0.250000       1.00800           0
      1839 MEMB     14       POPC     C15      CTL5    -0.350000       12.0110           0
      1840 MEMB     14       POPC     H15A     HL       0.250000       1.00800           0
      1841 MEMB     14       POPC     H15B     HL       0.250000       1.00800           0
      1842 MEMB     14       POPC     H15C     HL       0.250000       1.00800           0
      1843 MEMB     14       POPC     C11      CTL2    -0.800000E-01   12.0110           0
      1844 MEMB     14       POPC     H11A     HAL2     0.900000E-01   1.00800           0
      1845 MEMB     14       POPC     H11B     HAL2     0.900000E-01   1.00800           0
      1846 MEMB     14       POPC     P        PL       1.500000       30.9740           0
      1847 MEMB     14       POPC     O13      O2L     -0.780000       15.9994           0
      1848 MEMB     14       POPC     O14      O2L     -0.780000       15.9994           0
      1849 MEMB     14       POPC     O12      OSLP    -0.570000       15.9994           0
      1850 MEMB     14       POPC     O11      OSLP    -0.570000       15.9994           0
      1851 MEMB     14       POPC     C1       CTL2    -0.800000E-01   12.0110           0
      1852 MEMB     14       POPC     HA       HAL2     0.900000E-01   1.00800           0
      1853 MEMB     14       POPC     HB       HAL2     0.900000E-01   1.00800           0
      1854 MEMB     14       POPC     C2       CTL1     0.170000       12.0110           0
      1855 MEMB     14       POPC     HS       HAL1     0.900000E-01   1.00800           0
      1856 MEMB     14       POPC     O21      OSL     -0.490000       15.9994           0
      1857 MEMB     14       POPC     C21      CL       0.900000       12.0110           0
      1858 MEMB     14       POPC     O22      OBL     -0.630000       15.9994           0
      1859 MEMB     14       POPC     C22      CTL2    -0.220000       12.0110           0
      1860 MEMB     14       POPC     H2R      HAL2     0.900000E-01   1.00800           0
      1861 MEMB     14       POPC     H2S      HAL2     0.900000E-01   1.00800           0
      1862 MEMB     14       POPC     C3       CTL2     0.800000E-01   12.0110           0
      1863 MEMB     14       POPC     HX       HAL2     0.900000E-01   1.00800           0
      1864 MEMB     14       POPC     HY       HAL2     0.900000E-01   1.00800           0
      1865 MEMB     14       POPC     O31      OSL     -0.490000       15.9994           0
      1866 MEMB     14       POPC     C31      CL       0.900000       12.0110           0
      1867 MEMB     14       POPC     O32      OBL     -0.630000       15.9994           0
      1868 MEMB     14       POPC     C32      CTL2    -0.220000       12.0110           0
      1869 MEMB     14       POPC     H2X      HAL2     0.900000E-01   1.00800           0
      1870 MEMB     14       POPC     H2Y      HAL2     0.900000E-01   1.00800           0
      1871 MEMB     14       POPC     C23      CTL2    -0.180000       12.0110           0
      1872 MEMB     14       POPC     H3R      HAL2     0.900000E-01   1.00800           0
      1873 MEMB     14       POPC     H3S      HAL2     0.900000E-01   1.00800           0
      1874 MEMB     14       POPC     C24      CTL2    -0.180000       12.0110           0
      1875 MEMB     14       POPC     H4R      HAL2     0.900000E-01   1.00800           0
      1876 MEMB     14       POPC     H4S      HAL2     0.900000E-01   1.00800           0
      1877 MEMB     14       POPC     C25      CTL2    -0.180000       12.0110           0
      1878 MEMB     14       POPC     H5R      HAL2     0.900000E-01   1.00800           0
      1879 MEMB     14       POPC     H5S      HAL2     0.900000E-01   1.00800           0
      1880 MEMB     14       POPC     C26      CTL2    -0.180000       12.0110           0
      1881 MEMB     14       POPC     H6R      HAL2     0.900000E-01   1.00800           0
      1882 MEMB     14       POPC     H6S      HAL2     0.900000E-01   1.00800           0
      1883 MEMB     14       POPC     C27      CTL2    -0.180000       12.0110           0
      1884 MEMB     14       POPC     H7R      HAL2     0.900000E-01   1.00800           0
      1885 MEMB     14       POPC     H7S      HAL2     0.900000E-01   1.00800           0
      1886 MEMB     14       POPC     C28      CTL2    -0.180000       12.0110           0
      1887 MEMB     14       POPC     H8R      HAL2     0.900000E-01   1.00800           0
      1888 MEMB     14       POPC     H8S      HAL2     0.900000E-01   1.00800           0
      1889 MEMB     14       POPC     C29      CEL1    -0.150000       12.0110           0
      1890 MEMB     14       POPC     H91      HEL1     0.150000       1.00800           0
      1891 MEMB     14       POPC     C210     CEL1    -0.150000       12.0110           0
      1892 MEMB     14       POPC     H101     HEL1     0.150000       1.00800           0
      1893 MEMB     14       POPC     C211     CTL2    -0.180000       12.0110           0
      1894 MEMB     14       POPC     H11R     HAL2     0.900000E-01   1.00800           0
      1895 MEMB     14       POPC     H11S     HAL2     0.900000E-01   1.00800           0
      1896 MEMB     14       POPC     C212     CTL2    -0.180000       12.0110           0
      1897 MEMB     14       POPC     H12R     HAL2     0.900000E-01   1.00800           0
      1898 MEMB     14       POPC     H12S     HAL2     0.900000E-01   1.00800           0
      1899 MEMB     14       POPC     C213     CTL2    -0.180000       12.0110           0
      1900 MEMB     14       POPC     H13R     HAL2     0.900000E-01   1.00800           0
      1901 MEMB     14       POPC     H13S     HAL2     0.900000E-01   1.00800           0
      1902 MEMB     14       POPC     C214     CTL2    -0.180000       12.0110           0
      1903 MEMB     14       POPC     H14R     HAL2     0.900000E-01   1.00800           0
      1904 MEMB     14       POPC     H14S     HAL2     0.900000E-01   1.00800           0
      1905 MEMB     14       POPC     C215     CTL2    -0.180000       12.0110           0
      1906 MEMB     14       POPC     H15R     HAL2     0.900000E-01   1.00800           0
      1907 MEMB     14       POPC     H15S     HAL2     0.900000E-01   1.00800           0
      1908 MEMB     14       POPC     C216     CTL2    -0.180000       12.0110           0
      1909 MEMB     14       POPC     H16R     HAL2     0.900000E-01   1.00800           0
      1910 MEMB     14       POPC     H16S     HAL2     0.900000E-01   1.00800           0
      1911 MEMB     14       POPC     C217     CTL2    -0.180000       12.0110           0
      1912 MEMB     14       POPC     H17R     HAL2     0.900000E-01   1.00800           0
      1913 MEMB     14       POPC     H17S     HAL2     0.900000E-01   1.00800           0
      1914 MEMB     14       POPC     C218     CTL3    -0.270000       12.0110           0
      1915 MEMB     14       POPC     H18R     HAL3     0.900000E-01   1.00800           0
      1916 MEMB     14       POPC     H18S     HAL3     0.900000E-01   1.00800           0
      1917 MEMB     14       POPC     H18T     HAL3     0.900000E-01   1.00800           0
      1918 MEMB     14       POPC     C33      CTL2    -0.180000       12.0110           0
      1919 MEMB     14       POPC     H3X      HAL2     0.900000E-01   1.00800           0
      1920 MEMB     14       POPC     H3Y      HAL2     0.900000E-01   1.00800           0
      1921 MEMB     14       POPC     C34      CTL2    -0.180000       12.0110           0
      1922 MEMB     14       POPC     H4X      HAL2     0.900000E-01   1.00800           0
      1923 MEMB     14       POPC     H4Y      HAL2     0.900000E-01   1.00800           0
      1924 MEMB     14       POPC     C35      CTL2    -0.180000       12.0110           0
      1925 MEMB     14       POPC     H5X      HAL2     0.900000E-01   1.00800           0
      1926 MEMB     14       POPC     H5Y      HAL2     0.900000E-01   1.00800           0
      1927 MEMB     14       POPC     C36      CTL2    -0.180000       12.0110           0
      1928 MEMB     14       POPC     H6X      HAL2     0.900000E-01   1.00800           0
      1929 MEMB     14       POPC     H6Y      HAL2     0.900000E-01   1.00800           0
      1930 MEMB     14       POPC     C37      CTL2    -0.180000       12.0110           0
      1931 MEMB     14       POPC     H7X      HAL2     0.900000E-01   1.00800           0
      1932 MEMB     14       POPC     H7Y      HAL2     0.900000E-01   1.00800           0
      1933 MEMB     14       POPC     C38      CTL2    -0.180000       12.0110           0
      1934 MEMB     14       POPC     H8X      HAL2     0.900000E-01   1.00800           0
      1935 MEMB     14       POPC     H8Y      HAL2     0.900000E-01   1.00800           0
      1936 MEMB     14       POPC     C39      CTL2    -0.180000       12.0110           0
      1937 MEMB     14       POPC     H9X      HAL2     0.900000E-01   1.00800           0
      1938 MEMB     14       POPC     H9Y      HAL2     0.900000E-01   1.00800           0
      1939 MEMB     14       POPC     C310     CTL2    -0.180000       12.0110           0
      1940 MEMB     14       POPC     H10X     HAL2     0.900000E-01   1.00800           0
      1941 MEMB     14       POPC     H10Y     HAL2     0.900000E-01   1.00800           0
      1942 MEMB     14       POPC     C311     CTL2    -0.180000       12.0110           0
      1943 MEMB     14       POPC     H11X     HAL2     0.900000E-01   1.00800           0
      1944 MEMB     14       POPC     H11Y     HAL2     0.900000E-01   1.00800           0
      1945 MEMB     14       POPC     C312     CTL2    -0.180000       12.0110           0
      1946 MEMB     14       POPC     H12X     HAL2     0.900000E-01   1.00800           0
      1947 MEMB     14       POPC     H12Y     HAL2     0.900000E-01   1.00800           0
      1948 MEMB     14       POPC     C313     CTL2    -0.180000       12.0110           0
      1949 MEMB     14       POPC     H13X     HAL2     0.900000E-01   1.00800           0
      1950 MEMB     14       POPC     H13Y     HAL2     0.900000E-01   1.00800           0
      1951 MEMB     14       POPC     C314     CTL2    -0.180000       12.0110           0
      1952 MEMB     14       POPC     H14X     HAL2     0.900000E-01   1.00800           0
      1953 MEMB     14       POPC     H14Y     HAL2     0.900000E-01   1.00800           0
      1954 MEMB     14       POPC     C315     CTL2    -0.180000       12.0110           0
      1955 MEMB     14       POPC     H15X     HAL2     0.900000E-01   1.00800           0
      1956 MEMB     14       POPC     H15Y     HAL2     0.900000E-01   1.00800           0
      1957 MEMB     14       POPC     C316     CTL3    -0.270000       12.0110           0
      1958 MEMB     14       POPC     H16X     HAL3     0.900000E-01   1.00800           0
      1959 MEMB     14       POPC     H16Y     HAL3     0.900000E-01   1.00800           0
      1960 MEMB     14       POPC     H16Z     HAL3     0.900000E-01   1.00800           0
      1961 MEMB     15       POPC     N        NTL     -0.600000       14.0070           0
      1962 MEMB     15       POPC     C12      CTL2    -0.100000       12.0110           0
      1963 MEMB     15       POPC     H12A     HL       0.250000       1.00800           0
      1964 MEMB     15       POPC     H12B     HL       0.250000       1.00800           0
      1965 MEMB     15       POPC     C13      CTL5    -0.350000       12.0110           0
      1966 MEMB     15       POPC     H13A     HL       0.250000       1.00800           0
      1967 MEMB     15       POPC     H13B     HL       0.250000       1.00800           0
      1968 MEMB     15       POPC     H13C     HL       0.250000       1.00800           0
      1969 MEMB     15       POPC     C14      CTL5    -0.350000       12.0110           0
      1970 MEMB     15       POPC     H14A     HL       0.250000       1.00800           0
      1971 MEMB     15       POPC     H14B     HL       0.250000       1.00800           0
      1972 MEMB     15       POPC     H14C     HL       0.250000       1.00800           0
      1973 MEMB     15       POPC     C15      CTL5    -0.350000       12.0110           0
      1974 MEMB     15       POPC     H15A     HL       0.250000       1.00800           0
      1975 MEMB     15       POPC     H15B     HL       0.250000       1.00800           0
      1976 MEMB     15       POPC     H15C     HL       0.250000       1.00800           0
      1977 MEMB     15       POPC     C11      CTL2    -0.800000E-01   12.0110           0
      1978 MEMB     15       POPC     H11A     HAL2     0.900000E-01   1.00800           0
      1979 MEMB     15       POPC     H11B     HAL2     0.900000E-01   1.00800           0
      1980 MEMB     15       POPC     P        PL       1.500000       30.9740           0
      1981 MEMB     15       POPC     O13      O2L     -0.780000       15.9994           0
      1982 MEMB     15       POPC     O14      O2L     -0.780000       15.9994           0
      1983 MEMB     15       POPC     O12      OSLP    -0.570000       15.9994           0
      1984 MEMB     15       POPC     O11      OSLP    -0.570000       15.9994           0
      1985 MEMB     15       POPC     C1       CTL2    -0.800000E-01   12.0110           0
      1986 MEMB     15       POPC     HA       HAL2     0.900000E-01   1.00800           0
      1987 MEMB     15       POPC     HB       HAL2     0.900000E-01   1.00800           0
      1988 MEMB     15       POPC     C2       CTL1     0.170000       12.0110           0
      1989 MEMB     15       POPC     HS       HAL1     0.900000E-01   1.00800           0
      1990 MEMB     15       POPC     O21      OSL     -0.490000       15.9994           0
      1991 MEMB     15       POPC     C21      CL       0.900000       12.0110           0
      1992 MEMB     15       POPC     O22      OBL     -0.630000       15.9994           0
      1993 MEMB     15       POPC     C22      CTL2    -0.220000       12.0110           0
      1994 MEMB     15       POPC     H2R      HAL2     0.900000E-01   1.00800           0
      1995 MEMB     15       POPC     H2S      HAL2     0.900000E-01   1.00800           0
      1996 MEMB     15       POPC     C3       CTL2     0.800000E-01   12.0110           0
      1997 MEMB     15       POPC     HX       HAL2     0.900000E-01   1.00800           0
      1998 MEMB     15       POPC     HY       HAL2     0.900000E-01   1.00800           0
      1999 MEMB     15       POPC     O31      OSL     -0.490000       15.9994           0
      2000 MEMB     15       POPC     C31      CL       0.900000       12.0110           0
      2001 MEMB     15       POPC     O32      OBL     -0.630000       15.9994           0
      2002 MEMB     15       POPC     C32      CTL2    -0.220000       12.0110           0
      2003 MEMB     15       POPC     H2X      HAL2     0.900000E-01   1.00800           0
      2004 MEMB     15       POPC     H2Y      HAL2     0.900000E-01   1.00800           0
      2005 MEMB     15       POPC     C23      CTL2    -0.180000       12.0110           0
      2006 MEMB     15       POPC     H3R      HAL2     0.900000E-01   1.00800           0
      2007 MEMB     15       POPC     H3S      HAL2     0.900000E-01   1.00800           0
      2008 MEMB     15       POPC     C24      CTL2    -0.180000       12.0110           0
      2009 MEMB     15       POPC     H4R      HAL2     0.900000E-01   1.00800           0
      2010 MEMB     15       POPC     H4S      HAL2     0.900000E-01   1.00800           0
      2011 MEMB     15       POPC     C25      CTL2    -0.180000       12.0110           0
      2012 MEMB     15       POPC     H5R      HAL2     0.900000E-01   1.00800           0
      2013 MEMB     15       POPC     H5S      HAL2     0.900000E-01   1.00800           0
      2014 MEMB     15       POPC     C26      CTL2    -0.180000       12.0110           0
      2015 MEMB     15       POPC     H6R      HAL2     0.900000E-01   1.00800           0
      2016 MEMB     15       POPC     H6S      HAL2     0.900000E-01   1.00800           0
      2017 MEMB     15       POPC     C27      CTL2    -0.180000       12.0110           0
      2018 MEMB     15       POPC     H7R      HAL2     0.900000E-01   1.00800           0
      2019 MEMB     15       POPC     H7S      HAL2     0.900000E-01   1.00800           0
      2020 MEMB     15       POPC     C28      CTL2    -0.180000       12.0110           0
      2021 MEMB     15       POPC     H8R      HAL2     0.900000E-01   1.00800           0
      2022 MEMB     15       POPC     H8S      HAL2     0.900000E-01   1.00800           0
      2023 MEMB     15       POPC     C29      CEL1    -0.150000       12.0110           0
      2024 MEMB     15       POPC     H91      HEL1     0.150000       1.00800           0
      2025 MEMB     15       POPC     C210     CEL1    -0.150000       12.0110           0
      2026 MEMB     15       POPC     H101     HEL1     0.150000       1.00800           0
      2027 MEMB     15       POPC     C211     CTL2    -0.180000       12.0110           0
      2028 MEMB     15       POPC     H11R     HAL2     0.900000E-01   1.00800           0
      2029 MEMB     15       POPC     H11S     HAL2     0.900000E-01   1.00800           0
      2030 MEMB     15       POPC     C212     CTL2    -0.180000       12.0110           0
      2031 MEMB     15       POPC     H12R     HAL2     0.900000E-01   1.00800           0
      2032 MEMB     15       POPC     H12S     HAL2     0.900000E-01   1.00800           0
      2033 MEMB     15       POPC     C213     CTL2    -0.180000       12.0110           0
      2034 MEMB     15       POPC     H13R     HAL2     0.900000E-01   1.00800           0
      2035 MEMB     15       POPC     H13S     HAL2     0.900000E-01   1.00800           0
      2036 MEMB     15       POPC     C214     CTL2    -0.180000       12.0110           0
      2037 MEMB     15       POPC     H14R     HAL2     0.900000E-01   1.00800           0
      2038 MEMB     15       POPC     H14S     HAL2     0.900000E-01   1.00800           0
      2039 MEMB     15       POPC     C215     CTL2    -0.180000       12.0110           0
      2040 MEMB     15       POPC     H15R     HAL2     0.900000E-01   1.00800           0
      2041 MEMB     15       POPC     H15S     HAL2     0.900000E-01   1.00800           0
      2042 MEMB     15       POPC     C216     CTL2    -0.180000       12.0110           0
      2043 MEMB     15       POPC     H16R     HAL2     0.900000E-01   1.00800           0
      2044 MEMB     15       POPC     H16S     HAL2     0.900000E-01   1.00800           0
      2045 MEMB     15       POPC     C217     CTL2    -0.180000       12.0110           0
      2046 MEMB     15       POPC     H17R     HAL2     0.900000E-01   1.00800           0
      2047 MEMB     15       POPC     H17S     HAL2     0.900000E-01   1.00800           0
      2048 MEMB     15       POPC     C218     CTL3    -0.270000       12.0110           0
      2049 MEMB     15       POPC     H18R     HAL3     0.900000E-01   1.00800           0
      2050 MEMB     15       POPC     H18S     HAL3     0.900000E-01   1.00800           0
      2051 MEMB     15       POPC     H18T     HAL3     0.900000E-01   1.00800           0
      2052 MEMB     15       POPC     C33      CTL2    -0.180000       12.0110           0
      2053 MEMB     15       POPC     H3X      HAL2     0.900000E-01   1.00800           0
      2054 MEMB     15       POPC     H3Y      HAL2     0.900000E-01   1.00800           0
      2055 MEMB     15       POPC     C34      CTL2    -0.180000       12.0110           0
      2056 MEMB     15       POPC     H4X      HAL2     0.900000E-01   1.00800           0
      2057 MEMB     15       POPC     H4Y      HAL2     0.900000E-01   1.00800           0
      2058 MEMB     15       POPC     C35      CTL2    -0.180000       12.0110           0
      2059 MEMB     15       POPC     H5X      HAL2     0.900000E-01   1.00800           0
      2060 MEMB     15       POPC     H5Y      HAL2     0.900000E-01   1.00800           0
      2061 MEMB     15       POPC     C36      CTL2    -0.180000       12.0110           0
      2062 MEMB     15       POPC     H6X      HAL2     0.900000E-01   1.00800           0
      2063 MEMB     15       POPC     H6Y      HAL2     0.900000E-01   1.00800           0
      2064 MEMB     15       POPC     C37      CTL2    -0.180000       12.0110           0
      2065 MEMB     15       POPC     H7X      HAL2     0.900000E-01   1.00800           0
      2066 MEMB     15       POPC     H7Y      HAL2     0.900000E-01   1.00800           0
      2067 MEMB     15       POPC     C38      CTL2    -0.180000       12.0110           0
      2068 MEMB     15       POPC     H8X      HAL2     0.900000E-01   1.00800           0
      2069 MEMB     15       POPC     H8Y      HAL2     0.900000E-01   1.00800           0
      2070 MEMB     15       POPC     C39      CTL2    -0.180000       12.0110           0
      2071 MEMB     15       POPC     H9X      HAL2     0.900000E-01   1.00800           0
      2072 MEMB     15       POPC     H9Y      HAL2     0.900000E-01   1.00800           0
      2073 MEMB     15       POPC     C310     CTL2    -0.180000       12.0110           0
      2074 MEMB     15       POPC     H10X     HAL2     0.900000E-01   1.00800           0
      2075 MEMB     15       POPC     H10Y     HAL2     0.900000E-01   1.00800           0
      2076 MEMB     15       POPC     C311     CTL2    -0.180000       12.0110           0
      2077 MEMB     15       POPC     H11X     HAL2     0.900000E-01   1.00800           0
      2078 MEMB     15       POPC     H11Y     HAL2     0.900000E-01   1.00800           0
      2079 MEMB     15       POPC     C312     CTL2    -0.180000       12.0110           0
      2080 MEMB     15       POPC     H12X     HAL2     0.900000E-01   1.00800           0
      2081 MEMB     15       POPC     H12Y     HAL2     0.900000E-01   1.00800           0
      2082 MEMB     15       POPC     C313     CTL2    -0.180000       12.0110           0
      2083 MEMB     15       POPC     H13X     HAL2     0.900000E-01   1.00800           0
      2084 MEMB     15       POPC     H13Y     HAL2     0.900000E-01   1.00800           0
      2085 MEMB     15       POPC     C314     CTL2    -0.180000       12.0110           0
      2086 MEMB     15       POPC     H14X     HAL2     0.900000E-01   1.00800           0
      2087 MEMB     15       POPC     H14Y     HAL2     0.900000E-01   1.00800           0
      2088 MEMB     15       POPC     C315     CTL2    -0.180000       12.0110           0
      2089 MEMB     15       POPC     H15X     HAL2     0.900000E-01   1.00800           0
      2090 MEMB     15       POPC     H15Y     HAL2     0.900000E-01   1.00800           0
      2091 MEMB     15       POPC     C316     CTL3    -0.270000       12.0110           0
      2092 MEMB     15       POPC     H16X     HAL3     0.900000E-01   1.00800           0
      2093 MEMB     15       POPC     H16Y     HAL3     0.900000E-01   1.00800           0
      2094 MEMB     15       POPC     H16Z     HAL3     0.900000E-01   1.00800           0
      2095 MEMB     16       POPC     N        NTL     -0.600000       14.0070           0
      2096 MEMB     16       POPC     C12      CTL2    -0.100000       12.0110           0
      2097 MEMB     16       POPC     H12A     HL       0.250000       1.00800           0
      2098 MEMB     16       POPC     H12B     HL       0.250000       1.00800           0
      2099 MEMB     16       POPC     C13      CTL5    -0.350000       12.0110           0
      2100 MEMB     16       POPC     H13A     HL       0.250000       1.00800           0
      2101 MEMB     16       POPC     H13B     HL       0.250000       1.00800           0
      2102 MEMB     16       POPC     H13C     HL       0.250000       1.00800           0
      2103 MEMB     16       POPC     C14      CTL5    -0.350000       12.0110           0
      2104 MEMB     16       POPC     H14A     HL       0.250000       1.00800           0
      2105 MEMB     16       POPC     H14B     HL       0.250000       1.00800           0
      2106 MEMB     16       POPC     H14C     HL       0.250000       1.00800           0
      2107 MEMB     16       POPC     C15      CTL5    -0.350000       12.0110           0
      2108 MEMB     16       POPC     H15A     HL       0.250000       1.00800           0
      2109 MEMB     16       POPC     H15B     HL       0.250000       1.00800           0
      2110 MEMB     16       POPC     H15C     HL       0.250000       1.00800           0
      2111 MEMB     16       POPC     C11      CTL2    -0.800000E-01   12.0110           0
      2112 MEMB     16       POPC     H11A     HAL2     0.900000E-01   1.00800           0
      2113 MEMB     16       POPC     H11B     HAL2     0.900000E-01   1.00800           0
      2114 MEMB     16       POPC     P        PL       1.500000       30.9740           0
      2115 MEMB     16       POPC     O13      O2L     -0.780000       15.9994           0
      2116 MEMB     16       POPC     O14      O2L     -0.780000       15.9994           0
      2117 MEMB     16       POPC     O12      OSLP    -0.570000       15.9994           0
      2118 MEMB     16       POPC     O11      OSLP    -0.570000       15.9994           0
      2119 MEMB     16       POPC     C1       CTL2    -0.800000E-01   12.0110           0
      2120 MEMB     16       POPC     HA       HAL2     0.900000E-01   1.00800           0
      2121 MEMB     16       POPC     HB       HAL2     0.900000E-01   1.00800           0
      2122 MEMB     16       POPC     C2       CTL1     0.170000       12.0110           0
      2123 MEMB     16       POPC     HS       HAL1     0.900000E-01   1.00800           0
      2124 MEMB     16       POPC     O21      OSL     -0.490000       15.9994           0
      2125 MEMB     16       POPC     C21      CL       0.900000       12.0110           0
      2126 MEMB     16       POPC     O22      OBL     -0.630000       15.9994           0
      2127 MEMB     16       POPC     C22      CTL2    -0.220000       12.0110           0
      2128 MEMB     16       POPC     H2R      HAL2     0.900000E-01   1.00800           0
      2129 MEMB     16       POPC     H2S      HAL2     0.900000E-01   1.00800           0
      2130 MEMB     16       POPC     C3       CTL2     0.800000E-01   12.0110           0
      2131 MEMB     16       POPC     HX       HAL2     0.900000E-01   1.00800           0
      2132 MEMB     16       POPC     HY       HAL2     0.900000E-01   1.00800           0
      2133 MEMB     16       POPC     O31      OSL     -0.490000       15.9994           0
      2134 MEMB     16       POPC     C31      CL       0.900000       12.0110           0
      2135 MEMB     16       POPC     O32      OBL     -0.630000       15.9994           0
      2136 MEMB     16       POPC     C32      CTL2    -0.220000       12.0110           0
      2137 MEMB     16       POPC     H2X      HAL2     0.900000E-01   1.00800           0
      2138 MEMB     16       POPC     H2Y      HAL2     0.900000E-01   1.00800           0
      2139 MEMB     16       POPC     C23      CTL2    -0.180000       12.0110           0
      2140 MEMB     16       POPC     H3R      HAL2     0.900000E-01   1.00800           0
      2141 MEMB     16       POPC     H3S      HAL2     0.900000E-01   1.00800           0
      2142 MEMB     16       POPC     C24      CTL2    -0.180000       12.0110           0
      2143 MEMB     16       POPC     H4R      HAL2     0.900000E-01   1.00800           0
      2144 MEMB     16       POPC     H4S      HAL2     0.900000E-01   1.00800           0
      2145 MEMB     16       POPC     C25      CTL2    -0.180000       12.0110           0
      2146 MEMB     16       POPC     H5R      HAL2     0.900000E-01   1.00800           0
      2147 MEMB     16       POPC     H5S      HAL2     0.900000E-01   1.00800           0
      2148 MEMB     16       POPC     C26      CTL2    -0.180000       12.0110           0
      2149 MEMB     16       POPC     H6R      HAL2     0.900000E-01   1.00800           0
      2150 MEMB     16       POPC     H6S      HAL2     0.900000E-01   1.00800           0
      2151 MEMB     16       POPC     C27      CTL2    -0.180000       12.0110           0
      2152 MEMB     16       POPC     H7R      HAL2     0.900000E-01   1.00800           0
      2153 MEMB     16       POPC     H7S      HAL2     0.900000E-01   1.00800           0
      2154 MEMB     16       POPC     C28      CTL2    -0.180000       12.0110           0
      2155 MEMB     16       POPC     H8R      HAL2     0.900000E-01   1.00800           0
      2156 MEMB     16       POPC     H8S      HAL2     0.900000E-01   1.00800           0
      2157 MEMB     16       POPC     C29      CEL1    -0.150000       12.0110           0
      2158 MEMB     16       POPC     H91      HEL1     0.150000       1.00800           0
      2159 MEMB     16       POPC     C210     CEL1    -0.150000       12.0110           0
      2160 MEMB     16       POPC     H101     HEL1     0.150000       1.00800           0
      2161 MEMB     16       POPC     C211     CTL2    -0.180000       12.0110           0
      2162 MEMB     16       POPC     H11R     HAL2     0.900000E-01   1.00800           0
      2163 MEMB     16       POPC     H11S     HAL2     0.900000E-01   1.00800           0
      2164 MEMB     16       POPC     C212     CTL2    -0.180000       12.0110           0
      2165 MEMB     16       POPC     H12R     HAL2     0.900000E-01   1.00800           0
      2166 MEMB     16       POPC     H12S     HAL2     0.900000E-01   1.00800           0
      2167 MEMB     16       POPC     C213     CTL2    -0.180000       12.0110           0
      2168 MEMB     16       POPC     H13R     HAL2     0.900000E-01   1.00800           0
      2169 MEMB     16       POPC     H13S     HAL2     0.900000E-01   1.00800           0
      2170 MEMB     16       POPC     C214     CTL2    -0.180000       12.0110           0
      2171 MEMB     16       POPC     H14R     HAL2     0.900000E-01   1.00800           0
      2172 MEMB     16       POPC     H14S     HAL2     0.900000E-01   1.00800           0
      2173 MEMB     16       POPC     C215     CTL2    -0.180000       12.0110           0
      2174 MEMB     16       POPC     H15R     HAL2     0.900000E-01   1.00800           0
      2175 MEMB     16       POPC     H15S     HAL2     0.900000E-01   1.00800           0
      2176 MEMB     16       POPC     C216     CTL2    -0.180000       12.0110           0
      2177 MEMB     16       POPC     H16R     HAL2     0.900000E-01   1.00800           0
      2178 MEMB     16       POPC     H16S     HAL2     0.900000E-01   1.00800           0
      2179 MEMB     16       POPC     C217     CTL2    -0.180000       12.0110           0
      2180 MEMB     16       POPC     H17R     HAL2     0.900000E-01   1.00800           0
      2181 MEMB     16       POPC     H17S     HAL2     0.900000E-01   1.00800           0
      2182 MEMB     16       POPC     C218     CTL3    -0.270000       12.0110           0
      2183 MEMB     16       POPC     H18R     HAL3     0.900000E-01   1.00800           0
      2184 MEMB     16       POPC     H18S     HAL3     0.900000E-01   1.00800           0
      2185 MEMB     16       POPC     H18T     HAL3     0.900000E-01   1.00800           0
      2186 MEMB     16       POPC     C33      CTL2    -0.180000       12.0110           0
      2187 MEMB     16       POPC     H3X      HAL2     0.900000E-01   1.00800           0
      2188 MEMB     16       POPC     H3Y      HAL2     0.900000E-01   1.00800           0
      2189 MEMB     16       POPC     C34      CTL2    -0.180000       12.0110           0
      2190 MEMB     16       POPC     H4X      HAL2     0.900000E-01   1.00800           0
      2191 MEMB     16       POPC     H4Y      HAL2     0.900000E-01   1.00800           0
      2192 MEMB     16       POPC     C35      CTL2    -0.180000       12.0110           0
      2193 MEMB     16       POPC     H5X      HAL2     0.900000E-01   1.00800           0
      2194 MEMB     16       POPC     H5Y      HAL2     0.900000E-01   1.00800           0
      2195 MEMB     16       POPC     C36      CTL2    -0.180000       12.0110           0
      2196 MEMB     16       POPC     H6X      HAL2     0.900000E-01   1.00800           0
      2197 MEMB     16       POPC     H6Y      HAL2     0.900000E-01   1.00800           0
      2198 MEMB     16       POPC     C37      CTL2    -0.180000       12.0110           0
      2199 MEMB     16       POPC     H7X      HAL2     0.900000E-01   1.00800           0
      2200 MEMB     16       POPC     H7Y      HAL2     0.900000E-01   1.00800           0
      2201 MEMB     16       POPC     C38      CTL2    -0.180000       12.0110           0
      2202 MEMB     16       POPC     H8X      HAL2     0.900000E-01   1.00800           0
      2203 MEMB     16       POPC     H8Y      HAL2     0.900000E-01   1.00800           0
      2204 MEMB     16       POPC     C39      CTL2    -0.180000       12.0110           0
      2205 MEMB     16       POPC     H9X      HAL2     0.900000E-01   1.00800           0
      2206 MEMB     16       POPC     H9Y      HAL2     0.900000E-01   1.00800           0
      2207 MEMB     16       POPC     C310     CTL2    -0.180000       12.0110           0
      2208 MEMB     16       POPC     H10X     HAL2     0.900000E-01   1.00800           0
      2209 MEMB     16       POPC     H10Y     HAL2     0.900000E-01   1.00800           0
      2210 MEMB     16       POPC     C311     CTL2    -0.180000       12.0110           0
      2211 MEMB     16       POPC     H11X     HAL2     0.900000E-01   1.00800           0
      2212 MEMB     16       POPC     H11Y     HAL2     0.900000E-01   1.00800           0
      2213 MEMB     16       POPC     C312     CTL2    -0.180000       12.0110           0
      2214 MEMB     16       POPC     H12X     HAL2     0.900000E-01   1.00800           0
      2215 MEMB     16       POPC     H12Y     HAL2     0.900000E-01   1.00800           0
      2216 MEMB     16       POPC     C313     CTL2    -0.180000       12.0110           0
      2217 MEMB     16       POPC     H13X     HAL2     0.900000E-01   1.00800           0
      2218 MEMB     16       POPC     H13Y     HAL2     0.900000E-01   1.00800           0
      2219 MEMB     16       POPC     C314     CTL2    -0.180000       12.0110           0
      2220 MEMB     16       POPC     H14X     HAL2     0.900000E-01   1.00800           0
      2221 MEMB     16       POPC     H14Y     HAL2     0.900000E-01   1.00800           0
      2222 MEMB     16       POPC     C315     CTL2    -0.180000       12.0110           0
      2223 MEMB     16       POPC     H15X     HAL2     0.900000E-01   1.00800           0
      2224 MEMB     16       POPC     H15Y     HAL2     0.900000E-01   1.00800           0
      2225 MEMB     16       POPC     C316     CTL3    -0.270000       12.0110           0
      2226 MEMB     16       POPC     H16X     HAL3     0.900000E-01   1.00800           0
      2227 MEMB     16       POPC     H16Y     HAL3     0.900000E-01   1.00800           0
      2228 MEMB     16       POPC     H16Z     HAL3     0.900000E-01   1.00800           0
      2229 MEMB     17       POPC     N        NTL     -0.600000       14.0070           0
      2230 MEMB     17       POPC     C12      CTL2    -0.100000       12.0110           0
      2231 MEMB     17       POPC     H12A     HL       0.250000       1.00800           0
      2232 MEMB     17       POPC     H12B     HL       0.250000       1.00800           0
      2233 MEMB     17       POPC     C13      CTL5    -0.350000       12.0110           0
      2234 MEMB     17       POPC     H13A     HL       0.250000       1.00800           0
      2235 MEMB     17       POPC     H13B     HL       0.250000       1.00800           0
      2236 MEMB     17       POPC     H13C     HL       0.250000       1.00800           0
      2237 MEMB     17       POPC     C14      CTL5    -0.350000       12.0110           0
      2238 MEMB     17       POPC     H14A     HL       0.250000       1.00800           0
      2239 MEMB     17       POPC     H14B     HL       0.250000       1.00800           0
      2240 MEMB     17       POPC     H14C     HL       0.250000       1.00800           0
      2241 MEMB     17       POPC     C15      CTL5    -0.350000       12.0110           0
      2242 MEMB     17       POPC     H15A     HL       0.250000       1.00800           0
      2243 MEMB     17       POPC     H15B     HL       0.250000       1.00800           0
      2244 MEMB     17       POPC     H15C     HL       0.250000       1.00800           0
      2245 MEMB     17       POPC     C11      CTL2    -0.800000E-01   12.0110           0
      2246 MEMB     17       POPC     H11A     HAL2     0.900000E-01   1.00800           0
      2247 MEMB     17       POPC     H11B     HAL2     0.900000E-01   1.00800           0
      2248 MEMB     17       POPC     P        PL       1.500000       30.9740           0
      2249 MEMB     17       POPC     O13      O2L     -0.780000       15.9994           0
      2250 MEMB     17       POPC     O14      O2L     -0.780000       15.9994           0
      2251 MEMB     17       POPC     O12      OSLP    -0.570000       15.9994           0
      2252 MEMB     17       POPC     O11      OSLP    -0.570000       15.9994           0
      2253 MEMB     17       POPC     C1       CTL2    -0.800000E-01   12.0110           0
      2254 MEMB     17       POPC     HA       HAL2     0.900000E-01   1.00800           0
      2255 MEMB     17       POPC     HB       HAL2     0.900000E-01   1.00800           0
      2256 MEMB     17       POPC     C2       CTL1     0.170000       12.0110           0
      2257 MEMB     17       POPC     HS       HAL1     0.900000E-01   1.00800           0
      2258 MEMB     17       POPC     O21      OSL     -0.490000       15.9994           0
      2259 MEMB     17       POPC     C21      CL       0.900000       12.0110           0
      2260 MEMB     17       POPC     O22      OBL     -0.630000       15.9994           0
      2261 MEMB     17       POPC     C22      CTL2    -0.220000       12.0110           0
      2262 MEMB     17       POPC     H2R      HAL2     0.900000E-01   1.00800           0
      2263 MEMB     17       POPC     H2S      HAL2     0.900000E-01   1.00800           0
      2264 MEMB     17       POPC     C3       CTL2     0.800000E-01   12.0110           0
      2265 MEMB     17       POPC     HX       HAL2     0.900000E-01   1.00800           0
      2266 MEMB     17       POPC     HY       HAL2     0.900000E-01   1.00800           0
      2267 MEMB     17       POPC     O31      OSL     -0.490000       15.9994           0
      2268 MEMB     17       POPC     C31      CL       0.900000       12.0110           0
      2269 MEMB     17       POPC     O32      OBL     -0.630000       15.9994           0
      2270 MEMB     17       POPC     C32      CTL2    -0.220000       12.0110           0
      2271 MEMB     17       POPC     H2X      HAL2     0.900000E-01   1.00800           0
      2272 MEMB     17       POPC     H2Y      HAL2     0.900000E-01   1.00800           0
      2273 MEMB     17       POPC     C23      CTL2    -0.180000       12.0110           0
      2274 MEMB     17       POPC     H3R      HAL2     0.900000E-01   1.00800           0
      2275 MEMB     17       POPC     H3S      HAL2     0.900000E-01   1.00800           0
      2276 MEMB     17       POPC     C24      CTL2    -0.180000       12.0110           0
      2277 MEMB     17       POPC     H4R      HAL2     0.900000E-01   1.00800           0
      2278 MEMB     17       POPC     H4S      HAL2     0.900000E-01   1.00800           0
      2279 MEMB     17       POPC     C25      CTL2    -0.180000       12.0110           0
      2280 MEMB     17       POPC     H5R      HAL2     0.900000E-01   1.00800           0
      2281 MEMB     17       POPC     H5S      HAL2     0.900000E-01   1.00800           0
      2282 MEMB     17       POPC     C26      CTL2    -0.180000       12.0110           0
      2283 MEMB     17       POPC     H6R      HAL2     0.900000E-01   1.00800           0
      2284 MEMB     17       POPC     H6S      HAL2     0.900000E-01   1.00800           0
      2285 MEMB     17       POPC     C27      CTL2    -0.180000       12.0110           0
      2286 MEMB     17       POPC     H7R      HAL2     0.900000E-01   1.00800           0
      2287 MEMB     17       POPC     H7S      HAL2     0.900000E-01   1.00800           0
      2288 MEMB     17       POPC     C28      CTL2    -0.180000       12.0110           0
      2289 MEMB     17       POPC     H8R      HAL2     0.900000E-01   1.00800           0
      2290 MEMB     17       POPC     H8S      HAL2     0.900000E-01   1.00800           0
      2291 MEMB     17       POPC     C29      CEL1    -0.150000       12.0110           0
      2292 MEMB     17       POPC     H91      HEL1     0.150000       1.00800           0
      2293 MEMB     17       POPC     C210     CEL1    -0.150000       12.0110           0
      2294 MEMB     17       POPC     H101     HEL1     0.150000       1.00800           0
      2295 MEMB     17       POPC     C211     CTL2    -0.180000       12.0110           0
      2296 MEMB     17       POPC     H11R     HAL2     0.900000E-01   1.00800           0
      2297 MEMB     17       POPC     H11S     HAL2     0.900000E-01   1.00800           0
      2298 MEMB     17       POPC     C212     CTL2    -0.180000       12.0110           0
      2299 MEMB     17       POPC     H12R     HAL2     0.900000E-01   1.00800           0
      2300 MEMB     17       POPC     H12S     HAL2     0.900000E-01   1.00800           0
      2301 MEMB     17       POPC     C213     CTL2    -0.180000       12.0110           0
      2302 MEMB     17       POPC     H13R     HAL2     0.900000E-01   1.00800           0
      2303 MEMB     17       POPC     H13S     HAL2     0.900000E-01   1.00800           0
      2304 MEMB     17       POPC     C214     CTL2    -0.180000       12.0110           0
      2305 MEMB     17       POPC     H14R     HAL2     0.900000E-01   1.00800           0
      2306 MEMB     17       POPC     H14S     HAL2     0.900000E-01   1.00800           0
      2307 MEMB     17       POPC     C215     CTL2    -0.180000       12.0110           0
      2308 MEMB     17       POPC     H15R     HAL2     0.900000E-01   1.00800           0
      2309 MEMB     17       POPC     H15S     HAL2     0.900000E-01   1.00800           0
      2310 MEMB     17       POPC     C216     CTL2    -0.180000       12.0110           0
      2311 MEMB     17       POPC     H16R     HAL2     0.900000E-01   1.00800           0
      2312 MEMB     17       POPC     H16S     HAL2     0.900000E-01   1.00800           0
      2313 MEMB     17       POPC     C217     CTL2    -0.180000       12.0110           0
      2314 MEMB     17       POPC     H17R     HAL2     0.900000E-01   1.00800           0
      2315 MEMB     17       POPC     H17S     HAL2     0.900000E-01   1.00800           0
      2316 MEMB     17       POPC     C218     CTL3    -0.270000       12.0110           0
      2317 MEMB     17       POPC     H18R     HAL3     0.900000E-01   1.00800           0
      2318 MEMB     17       POPC     H18S     HAL3     0.900000E-01   1.00800           0
      2319 MEMB     17       POPC     H18T     HAL3     0.900000E-01   1.00800           0
      2320 MEMB     17       POPC     C33      CTL2    -0.180000       12.0110           0
      2321 MEMB     17       POPC     H3X      HAL2     0.900000E-01   1.00800           0
      2322 MEMB     17       POPC     H3Y      HAL2     0.900000E-01   1.00800           0
      2323 MEMB     17       POPC     C34      CTL2    -0.180000       12.0110           0
      2324 MEMB     17       POPC     H4X      HAL2     0.900000E-01   1.00800           0
      2325 MEMB     17       POPC     H4Y      HAL2     0.900000E-01   1.00800           0
      2326 MEMB     17       POPC     C35      CTL2    -0.180000       12.0110           0
      2327 MEMB     17       POPC     H5X      HAL2     0.900000E-01   1.00800           0
      2328 MEMB     17       POPC     H5Y      HAL2     0.900000E-01   1.00800           0
      2329 MEMB     17       POPC     C36      CTL2    -0.180000       12.0110           0
      2330 MEMB     17       POPC     H6X      HAL2     0.900000E-01   1.00800           0
      2331 MEMB     17       POPC     H6Y      HAL2     0.900000E-01   1.00800           0
      2332 MEMB     17       POPC     C37      CTL2    -0.180000       12.0110           0
      2333 MEMB     17       POPC     H7X      HAL2     0.900000E-01   1.00800           0
      2334 MEMB     17       POPC     H7Y      HAL2     0.900000E-01   1.00800           0
      2335 MEMB     17       POPC     C38      CTL2    -0.180000       12.0110           0
      2336 MEMB     17       POPC     H8X      HAL2     0.900000E-01   1.00800           0
      2337 MEMB     17       POPC     H8Y      HAL2     0.900000E-01   1.00800           0
      2338 MEMB     17       POPC     C39      CTL2    -0.180000       12.0110           0
      2339 MEMB     17       POPC     H9X      HAL2     0.900000E-01   1.00800           0
      2340 MEMB     17       POPC     H9Y      HAL2     0.900000E-01   1.00800           0
      2341 MEMB     17       POPC     C310     CTL2    -0.180000       12.0110           0
      2342 MEMB     17       POPC     H10X     HAL2     0.900000E-01   1.00800           0
      2343 MEMB     17       POPC     H10Y     HAL2     0.900000E-01   1.00800           0
      2344 MEMB     17       POPC     C311     CTL2    -0.180000       12.0110           0
      2345 MEMB     17       POPC     H11X     HAL2     0.900000E-01   1.00800           0
      2346 MEMB     17       POPC     H11Y     HAL2     0.900000E-01   1.00800           0
      2347 MEMB     17       POPC     C312     CTL2    -0.180000       12.0110           0
      2348 MEMB     17       POPC     H12X     HAL2     0.900000E-01   1.00800           0
      2349 MEMB     17       POPC     H12Y     HAL2     0.900000E-01   1.00800           0
      2350 MEMB     17       POPC     C313     CTL2    -0.180000       12.0110           0
      2351 MEMB     17       POPC     H13X     HAL2     0.900000E-01   1.00800           0
      2352 MEMB     17       POPC     H13Y     HAL2     0.900000E-01   1.00800           0
      2353 MEMB     17       POPC     C314     CTL2    -0.180000       12.0110           0
      2354 MEMB     17       POPC     H14X     HAL2     0.900000E-01   1.00800           0
      2355 MEMB     17       POPC     H14Y     HAL2     0.900000E-01   1.00800           0
      2356 MEMB     17       POPC     C315     CTL2    -0.180000       12.0110           0
      2357 MEMB     17       POPC     H15X     HAL2     0.900000E-01   1.00800           0
      2358 MEMB     17       POPC     H15Y     HAL2     0.900000E-01   1.00800           0
      2359 MEMB     17       POPC     C316     CTL3    -0.270000       12.0110           0
      2360 MEMB     17       POPC     H16X     HAL3     0.900000E-01   1.00800           0
      2361 MEMB     17       POPC     H16Y     HAL3     0.900000E-01   1.00800           0
      2362 MEMB     17       POPC     H16Z     HAL3     0.900000E-01   1.00800           0
      2363 MEMB     18       POPC     N        NTL     -0.600000       14.0070           0
      2364 MEMB     18       POPC     C12      CTL2    -0.100000       12.0110           0
      2365 MEMB     18       POPC     H12A     HL       0.250000       1.00800           0
      2366 MEMB     18       POPC     H12B     HL       0.250000       1.00800           0
      2367 MEMB     18       POPC     C13      CTL5    -0.350000       12.0110           0
      2368 MEMB     18       POPC     H13A     HL       0.250000       1.00800           0
      2369 MEMB     18       POPC     H13B     HL       0.250000       1.00800           0
      2370 MEMB     18       POPC     H13C     HL       0.250000       1.00800           0
      2371 MEMB     18       POPC     C14      CTL5    -0.350000       12.0110           0
      2372 MEMB     18       POPC     H14A     HL       0.250000       1.00800           0
      2373 MEMB     18       POPC     H14B     HL       0.250000       1.00800           0
      2374 MEMB     18       POPC     H14C     HL       0.250000       1.00800           0
      2375 MEMB     18       POPC     C15      CTL5    -0.350000       12.0110           0
      2376 MEMB     18       POPC     H15A     HL       0.250000       1.00800           0
      2377 MEMB     18       POPC     H15B     HL       0.250000       1.00800           0
      2378 MEMB     18       POPC     H15C     HL       0.250000       1.00800           0
      2379 MEMB     18       POPC     C11      CTL2    -0.800000E-01   12.0110           0
      2380 MEMB     18       POPC     H11A     HAL2     0.900000E-01   1.00800           0
      2381 MEMB     18       POPC     H11B     HAL2     0.900000E-01   1.00800           0
      2382 MEMB     18       POPC     P        PL       1.500000       30.9740           0
      2383 MEMB     18       POPC     O13      O2L     -0.780000       15.9994           0
      2384 MEMB     18       POPC     O14      O2L     -0.780000       15.9994           0
      2385 MEMB     18       POPC     O12      OSLP    -0.570000       15.9994           0
      2386 MEMB     18       POPC     O11      OSLP    -0.570000       15.9994           0
      2387 MEMB     18       POPC     C1       CTL2    -0.800000E-01   12.0110           0
      2388 MEMB     18       POPC     HA       HAL2     0.900000E-01   1.00800           0
      2389 MEMB     18       POPC     HB       HAL2     0.900000E-01   1.00800           0
      2390 MEMB     18       POPC     C2       CTL1     0.170000       12.0110           0
      2391 MEMB     18       POPC     HS       HAL1     0.900000E-01   1.00800           0
      2392 MEMB     18       POPC     O21      OSL     -0.490000       15.9994           0
      2393 MEMB     18       POPC     C21      CL       0.900000       12.0110           0
      2394 MEMB     18       POPC     O22      OBL     -0.630000       15.9994           0
      2395 MEMB     18       POPC     C22      CTL2    -0.220000       12.0110           0
      2396 MEMB     18       POPC     H2R      HAL2     0.900000E-01   1.00800           0
      2397 MEMB     18       POPC     H2S      HAL2     0.900000E-01   1.00800           0
      2398 MEMB     18       POPC     C3       CTL2     0.800000E-01   12.0110           0
      2399 MEMB     18       POPC     HX       HAL2     0.900000E-01   1.00800           0
      2400 MEMB     18       POPC     HY       HAL2     0.900000E-01   1.00800           0
      2401 MEMB     18       POPC     O31      OSL     -0.490000       15.9994           0
      2402 MEMB     18       POPC     C31      CL       0.900000       12.0110           0
      2403 MEMB     18       POPC     O32      OBL     -0.630000       15.9994           0
      2404 MEMB     18       POPC     C32      CTL2    -0.220000       12.0110           0
      2405 MEMB     18       POPC     H2X      HAL2     0.900000E-01   1.00800           0
      2406 MEMB     18       POPC     H2Y      HAL2     0.900000E-01   1.00800           0
      2407 MEMB     18       POPC     C23      CTL2    -0.180000       12.0110           0
      2408 MEMB     18       POPC     H3R      HAL2     0.900000E-01   1.00800           0
      2409 MEMB     18       POPC     H3S      HAL2     0.900000E-01   1.00800           0
      2410 MEMB     18       POPC     C24      CTL2    -0.180000       12.0110           0
      2411 MEMB     18       POPC     H4R      HAL2     0.900000E-01   1.00800           0
      2412 MEMB     18       POPC     H4S      HAL2     0.900000E-01   1.00800           0
      2413 MEMB     18       POPC     C25      CTL2    -0.180000       12.0110           0
      2414 MEMB     18       POPC     H5R      HAL2     0.900000E-01   1.00800           0
      2415 MEMB     18       POPC     H5S      HAL2     0.900000E-01   1.00800           0
      2416 MEMB     18       POPC     C26      CTL2    -0.180000       12.0110           0
      2417 MEMB     18       POPC     H6R      HAL2     0.900000E-01   1.00800           0
      2418 MEMB     18       POPC     H6S      HAL2     0.900000E-01   1.00800           0
      2419 MEMB     18       POPC     C27      CTL2    -0.180000       12.0110           0
      2420 MEMB     18       POPC     H7R      HAL2     0.900000E-01   1.00800           0
      2421 MEMB     18       POPC     H7S      HAL2     0.900000E-01   1.00800           0
      2422 MEMB     18       POPC     C28      CTL2    -0.180000       12.0110           0
      2423 MEMB     18       POPC     H8R      HAL2     0.900000E-01   1.00800           0
      2424 MEMB     18       POPC     H8S      HAL2     0.900000E-01   1.00800           0
      2425 MEMB     18       POPC     C29      CEL1    -0.150000       12.0110           0
      2426 MEMB     18       POPC     H91      HEL1     0.150000       1.00800           0
      2427 MEMB     18       POPC     C210     CEL1    -0.150000       12.0110           0
      2428 MEMB     18       POPC     H101     HEL1     0.150000       1.00800           0
      2429 MEMB     18       POPC     C211     CTL2    -0.180000       12.0110           0
      2430 MEMB     18       POPC     H11R     HAL2     0.900000E-01   1.00800           0
      2431 MEMB     18       POPC     H11S     HAL2     0.900000E-01   1.00800           0
      2432 MEMB     18       POPC     C212     CTL2    -0.180000       12.0110           0
      2433 MEMB     18       POPC     H12R     HAL2     0.900000E-01   1.00800           0
      2434 MEMB     18       POPC     H12S     HAL2     0.900000E-01   1.00800           0
      2435 MEMB     18       POPC     C213     CTL2    -0.180000       12.0110           0
      2436 MEMB     18       POPC     H13R     HAL2     0.900000E-01   1.00800           0
      2437 MEMB     18       POPC     H13S     HAL2     0.900000E-01   1.00800           0
      2438 MEMB     18       POPC     C214     CTL2    -0.180000       12.0110           0
      2439 MEMB     18       POPC     H14R     HAL2     0.900000E-01   1.00800           0
      2440 MEMB     18       POPC     H14S     HAL2     0.900000E-01   1.00800           0
      2441 MEMB     18       POPC     C215     CTL2    -0.180000       12.0110           0
      2442 MEMB     18       POPC     H15R     HAL2     0.900000E-01   1.00800           0
      2443 MEMB     18       POPC     H15S     HAL2     0.900000E-01   1.00800           0
      2444 MEMB     18       POPC     C216     CTL2    -0.180000       12.0110           0
      2445 MEMB     18       POPC     H16R     HAL2     0.900000E-01   1.00800           0
      2446 MEMB     18       POPC     H16S     HAL2     0.900000E-01   1.00800           0
      2447 MEMB     18       POPC     C217     CTL2    -0.180000       12.0110           0
      2448 MEMB     18       POPC     H17R     HAL2     0.900000E-01   1.00800           0
      2449 MEMB     18       POPC     H17S     HAL2     0.900000E-01   1.00800           0
      2450 MEMB     18       POPC     C218     CTL3    -0.270000       12.0110           0
      2451 MEMB     18       POPC     H18R     HAL3     0.900000E-01   1.00800           0
      2452 MEMB     18       POPC     H18S     HAL3     0.900000E-01   1.00800           0
      2453 MEMB     18       POPC     H18T     HAL3     0.900000E-01   1.00800           0
      2454 MEMB     18       POPC     C33      CTL2    -0.180000       12.0110           0
      2455 MEMB     18       POPC     H3X      HAL2     0.900000E-01   1.00800           0
      2456 MEMB     18       POPC     H3Y      HAL2     0.900000E-01   1.00800           0
      2457 MEMB     18       POPC     C34      CTL2    -0.180000       12.0110           0
      2458 MEMB     18       POPC     H4X      HAL2     0.900000E-01   1.00800           0
      2459 MEMB     18       POPC     H4Y      HAL2     0.900000E-01   1.00800           0
      2460 MEMB     18       POPC     C35      CTL2    -0.180000       12.0110           0
      2461 MEMB     18       POPC     H5X      HAL2     0.900000E-01   1.00800           0
      2462 MEMB     18       POPC     H5Y      HAL2     0.900000E-01   1.00800           0
      2463 MEMB     18       POPC     C36      CTL2    -0.180000       12.0110           0
      2464 MEMB     18       POPC     H6X      HAL2     0.900000E-01   1.00800           0
      2465 MEMB     18       POPC     H6Y      HAL2     0.900000E-01   1.00800           0
      2466 MEMB     18       POPC     C37      CTL2    -0.180000       12.0110           0
      2467 MEMB     18       POPC     H7X      HAL2     0.900000E-01   1.00800           0
      2468 MEMB     18       POPC     H7Y      HAL2     0.900000E-01   1.00800           0
      2469 MEMB     18       POPC     C38      CTL2    -0.180000       12.0110           0
      2470 MEMB     18       POPC     H8X      HAL2     0.900000E-01   1.00800           0
      2471 MEMB     18       POPC     H8Y      HAL2     0.900000E-01   1.00800           0
      2472 MEMB     18       POPC     C39      CTL2    -0.180000       12.0110           0
      2473 MEMB     18       POPC     H9X      HAL2     0.900000E-01   1.00800           0
      2474 MEMB     18       POPC     H9Y      HAL2     0.900000E-01   1.00800           0
      2475 MEMB     18       POPC     C310     CTL2    -0.180000       12.0110           0
      2476 MEMB     18       POPC     H10X     HAL2     0.900000E-01   1.00800           0
      2477 MEMB     18       POPC     H10Y     HAL2     0.900000E-01   1.00800           0
      2478 MEMB     18       POPC     C311     CTL2    -0.180000       12.0110           0
      2479 MEMB     18       POPC     H11X     HAL2     0.900000E-01   1.00800           0
      2480 MEMB     18       POPC     H11Y     HAL2     0.900000E-01   1.00800           0
      2481 MEMB     18       POPC     C312     CTL2    -0.180000       12.0110           0
      2482 MEMB     18       POPC     H12X     HAL2     0.900000E-01   1.00800           0
      2483 MEMB     18       POPC     H12Y     HAL2     0.900000E-01   1.00800           0
      2484 MEMB     18       POPC     C313     CTL2    -0.180000       12.0110           0
      2485 MEMB     18       POPC     H13X     HAL2     0.900000E-01   1.00800           0
      2486 MEMB     18       POPC     H13Y     HAL2     0.900000E-01   1.00800           0
      2487 MEMB     18       POPC     C314     CTL2    -0.180000       12.0110           0
      2488 MEMB     18       POPC     H14X     HAL2     0.900000E-01   1.00800           0
      2489 MEMB     18       POPC     H14Y     HAL2     0.900000E-01   1.00800           0
      2490 MEMB     18       POPC     C315     CTL2    -0.180000       12.0110           0
      2491 MEMB     18       POPC     H15X     HAL2     0.900000E-01   1.00800           0
      2492 MEMB     18       POPC     H15Y     HAL2     0.900000E-01   1.00800           0
      2493 MEMB     18       POPC     C316     CTL3    -0.270000       12.0110           0
      2494 MEMB     18       POPC     H16X     HAL3     0.900000E-01   1.00800           0
      2495 MEMB     18       POPC     H16Y     HAL3     0.900000E-01   1.00800           0
      2496 MEMB     18       POPC     H16Z     HAL3     0.900000E-01   1.00800           0
      2497 MEMB     19       POPC     N        NTL     -0.600000       14.0070           0
      2498 MEMB     19       POPC     C12      CTL2    -0.100000       12.0110           0
      2499 MEMB     19       POPC     H12A     HL       0.250000       1.00800           0
      2500 MEMB     19       POPC     H12B     HL       0.250000       1.00800           0
      2501 MEMB     19       POPC     C13      CTL5    -0.350000       12.0110           0
      2502 MEMB     19       POPC     H13A     HL       0.250000       1.00800           0
      2503 MEMB     19       POPC     H13B     HL       0.250000       1.00800           0
      2504 MEMB     19       POPC     H13C     HL       0.250000       1.00800           0
      2505 MEMB     19       POPC     C14      CTL5    -0.350000       12.0110           0
      2506 MEMB     19       POPC     H14A     HL       0.250000       1.00800           0
      2507 MEMB     19       POPC     H14B     HL       0.250000       1.00800           0
      2508 MEMB     19       POPC     H14C     HL       0.250000       1.00800           0
      2509 MEMB     19       POPC     C15      CTL5    -0.350000       12.0110           0
      2510 MEMB     19       POPC     H15A     HL       0.250000       1.00800           0
      2511 MEMB     19       POPC     H15B     HL       0.250000       1.00800           0
      2512 MEMB     19       POPC     H15C     HL       0.250000       1.00800           0
      2513 MEMB     19       POPC     C11      CTL2    -0.800000E-01   12.0110           0
      2514 MEMB     19       POPC     H11A     HAL2     0.900000E-01   1.00800           0
      2515 MEMB     19       POPC     H11B     HAL2     0.900000E-01   1.00800           0
      2516 MEMB     19       POPC     P        PL       1.500000       30.9740           0
      2517 MEMB     19       POPC     O13      O2L     -0.780000       15.9994           0
      2518 MEMB     19       POPC     O14      O2L     -0.780000       15.9994           0
      2519 MEMB     19       POPC     O12      OSLP    -0.570000       15.9994           0
      2520 MEMB     19       POPC     O11      OSLP    -0.570000       15.9994           0
      2521 MEMB     19       POPC     C1       CTL2    -0.800000E-01   12.0110           0
      2522 MEMB     19       POPC     HA       HAL2     0.900000E-01   1.00800           0
      2523 MEMB     19       POPC     HB       HAL2     0.900000E-01   1.00800           0
      2524 MEMB     19       POPC     C2       CTL1     0.170000       12.0110           0
      2525 MEMB     19       POPC     HS       HAL1     0.900000E-01   1.00800           0
      2526 MEMB     19       POPC     O21      OSL     -0.490000       15.9994           0
      2527 MEMB     19       POPC     C21      CL       0.900000       12.0110           0
      2528 MEMB     19       POPC     O22      OBL     -0.630000       15.9994           0
      2529 MEMB     19       POPC     C22      CTL2    -0.220000       12.0110           0
      2530 MEMB     19       POPC     H2R      HAL2     0.900000E-01   1.00800           0
      2531 MEMB     19       POPC     H2S      HAL2     0.900000E-01   1.00800           0
      2532 MEMB     19       POPC     C3       CTL2     0.800000E-01   12.0110           0
      2533 MEMB     19       POPC     HX       HAL2     0.900000E-01   1.00800           0
      2534 MEMB     19       POPC     HY       HAL2     0.900000E-01   1.00800           0
      2535 MEMB     19       POPC     O31      OSL     -0.490000       15.9994           0
      2536 MEMB     19       POPC     C31      CL       0.900000       12.0110           0
      2537 MEMB     19       POPC     O32      OBL     -0.630000       15.9994           0
      2538 MEMB     19       POPC     C32      CTL2    -0.220000       12.0110           0
      2539 MEMB     19       POPC     H2X      HAL2     0.900000E-01   1.00800           0
      2540 MEMB     19       POPC     H2Y      HAL2     0.900000E-01   1.00800           0
      2541 MEMB     19       POPC     C23      CTL2    -0.180000       12.0110           0
      2542 MEMB     19       POPC     H3R      HAL2     0.900000E-01   1.00800           0
      2543 MEMB     19       POPC     H3S      HAL2     0.900000E-01   1.00800           0
      2544 MEMB     19       POPC     C24      CTL2    -0.180000       12.0110           0
      2545 MEMB     19       POPC     H4R      HAL2     0.900000E-01   1.00800           0
      2546 MEMB     19       POPC     H4S      HAL2     0.900000E-01   1.00800           0
      2547 MEMB     19       POPC     C25      CTL2    -0.180000       12.0110           0
      2548 MEMB     19       POPC     H5R      HAL2     0.900000E-01   1.00800           0
      2549 MEMB     19       POPC     H5S      HAL2     0.900000E-01   1.00800           0
      2550 MEMB     19       POPC     C26      CTL2    -0.180000       12.0110           0
      2551 MEMB     19       POPC     H6R      HAL2     0.900000E-01   1.00800           0
      2552 MEMB     19       POPC     H6S      HAL2     0.900000E-01   1.00800           0
      2553 MEMB     19       POPC     C27      CTL2    -0.180000       12.0110           0
      2554 MEMB     19       POPC     H7R      HAL2     0.900000E-01   1.00800           0
      2555 MEMB     19       POPC     H7S      HAL2     0.900000E-01   1.00800           0
      2556 MEMB     19       POPC     C28      CTL2    -0.180000       12.0110           0
      2557 MEMB     19       POPC     H8R      HAL2     0.900000E-01   1.00800           0
      2558 MEMB     19       POPC     H8S      HAL2     0.900000E-01   1.00800           0
      2559 MEMB     19       POPC     C29      CEL1    -0.150000       12.0110           0
      2560 MEMB     19       POPC     H91      HEL1     0.150000       1.00800           0
      2561 MEMB     19       POPC     C210     CEL1    -0.150000       12.0110           0
      2562 MEMB     19       POPC     H101     HEL1     0.150000       1.00800           0
      2563 MEMB     19       POPC     C211     CTL2    -0.180000       12.0110           0
      2564 MEMB     19       POPC     H11R     HAL2     0.900000E-01   1.00800           0
      2565 MEMB     19       POPC     H11S     HAL2     0.900000E-01   1.00800           0
      2566 MEMB     19       POPC     C212     CTL2    -0.180000       12.0110           0
      2567 MEMB     19       POPC     H12R     HAL2     0.900000E-01   1.00800           0
      2568 MEMB     19       POPC     H12S     HAL2     0.900000E-01   1.00800           0
      2569 MEMB     19       POPC     C213     CTL2    -0.180000       12.0110           0
      2570 MEMB     19       POPC     H13R     HAL2     0.900000E-01   1.00800           0
      2571 MEMB     19       POPC     H13S     HAL2     0.900000E-01   1.00800           0
      2572 MEMB     19       POPC     C214     CTL2    -0.180000       12.0110           0
      2573 MEMB     19       POPC     H14R     HAL2     0.900000E-01   1.00800           0
      2574 MEMB     19       POPC     H14S     HAL2     0.900000E-01   1.00800           0
      2575 MEMB     19       POPC     C215     CTL2    -0.180000       12.0110           0
      2576 MEMB     19       POPC     H15R     HAL2     0.900000E-01   1.00800           0
      2577 MEMB     19       POPC     H15S     HAL2     0.900000E-01   1.00800           0
      2578 MEMB     19       POPC     C216     CTL2    -0.180000       12.0110           0
      2579 MEMB     19       POPC     H16R     HAL2     0.900000E-01   1.00800           0
      2580 MEMB     19       POPC     H16S     HAL2     0.900000E-01   1.00800           0
      2581 MEMB     19       POPC     C217     CTL2    -0.180000       12.0110           0
      2582 MEMB     19       POPC     H17R     HAL2     0.900000E-01   1.00800           0
      2583 MEMB     19       POPC     H17S     HAL2     0.900000E-01   1.00800           0
      2584 MEMB     19       POPC     C218     CTL3    -0.270000       12.0110           0
      2585 MEMB     19       POPC     H18R     HAL3     0.900000E-01   1.00800           0
      2586 MEMB     19       POPC     H18S     HAL3     0.900000E-01   1.00800           0
      2587 MEMB     19       POPC     H18T     HAL3     0.900000E-01   1.00800           0
      2588 MEMB     19       POPC     C33      CTL2    -0.180000       12.0110           0
      2589 MEMB     19       POPC     H3X      HAL2     0.900000E-01   1.00800           0
      2590 MEMB     19       POPC     H3Y      HAL2     0.900000E-01   1.00800           0
      2591 MEMB     19       POPC     C34      CTL2    -0.180000       12.0110           0
      2592 MEMB     19       POPC     H4X      HAL2     0.900000E-01   1.00800           0
      2593 MEMB     19       POPC     H4Y      HAL2     0.900000E-01   1.00800           0
      2594 MEMB     19       POPC     C35      CTL2    -0.180000       12.0110           0
      2595 MEMB     19       POPC     H5X      HAL2     0.900000E-01   1.00800           0
      2596 MEMB     19       POPC     H5Y      HAL2     0.900000E-01   1.00800           0
      2597 MEMB     19       POPC     C36      CTL2    -0.180000       12.0110           0
      2598 MEMB     19       POPC     H6X      HAL2     0.900000E-01   1.00800           0
      2599 MEMB     19       POPC     H6Y      HAL2     0.900000E-01   1.00800           0
      2600 MEMB     19       POPC     C37      CTL2    -0.180000       12.0110           0
      2601 MEMB     19       POPC     H7X      HAL2     0.900000E-01   1.00800           0
      2602 MEMB     19       POPC     H7Y      HAL2     0.900000E-01   1.00800           0
      2603 MEMB     19       POPC     C38      CTL2    -0.180000       12.0110           0
      2604 MEMB     19       POPC     H8X      HAL2     0.900000E-01   1.00800           0
      2605 MEMB     19       POPC     H8Y      HAL2     0.900000E-01   1.00800           0
      2606 MEMB     19       POPC     C39      CTL2    -0.180000       12.0110           0
      2607 MEMB     19       POPC     H9X      HAL2     0.900000E-01   1.00800           0
      2608 MEMB     19       POPC     H9Y      HAL2     0.900000E-01   1.00800           0
      2609 MEMB     19       POPC     C310     CTL2    -0.180000       12.0110           0
      2610 MEMB     19       POPC     H10X     HAL2     0.900000E-01   1.00800           0
      2611 MEMB     19       POPC     H10Y     HAL2     0.900000E-01   1.00800           0
      2612 MEMB     19       POPC     C311     CTL2    -0.180000       12.0110           0
      2613 MEMB     19       POPC     H11X     HAL2     0.900000E-01   1.00800           0
      2614 MEMB     19       POPC     H11Y     HAL2     0.900000E-01   1.00800           0
      2615 MEMB     19       POPC     C312     CTL2    -0.180000       12.0110           0
      2616 MEMB     19       POPC     H12X     HAL2     0.900000E-01   1.00800           0
      2617 MEMB     19       POPC     H12Y     HAL2     0.900000E-01   1.00800           0
      2618 MEMB     19       POPC     C313     CTL2    -0.180000       12.0110           0
      2619 MEMB     19       POPC     H13X     HAL2     0.900000E-01   1.00800           0
      2620 MEMB     19       POPC     H13Y     HAL2     0.900000E-01   1.00800           0
      2621 MEMB     19       POPC     C314     CTL2    -0.180000       12.0110           0
      2622 MEMB     19       POPC     H14X     HAL2     0.900000E-01   1.00800           0
      2623 MEMB     19       POPC     H14Y     HAL2     0.900000E-01   1.00800           0
      2624 MEMB     19       POPC     C315     CTL2    -0.180000       12.0110           0
      2625 MEMB     19       POPC     H15X     HAL2     0.900000E-01   1.00800           0
      2626 MEMB     19       POPC     H15Y     HAL2     0.900000E-01   1.00800           0
      2627 MEMB     19       POPC     C316     CTL3    -0.270000       12.0110           0
      2628 MEMB     19       POPC     H16X     HAL3     0.900000E-01   1.00800           0
      2629 MEMB     19       POPC     H16Y     HAL3     0.900000E-01   1.00800           0
      2630 MEMB     19       POPC     H16Z     HAL3     0.900000E-01   1.00800           0
      2631 MEMB     20       POPC     N        NTL     -0.600000       14.0070           0
      2632 MEMB     20       POPC     C12      CTL2    -0.100000       12.0110           0
      2633 MEMB     20       POPC     H12A     HL       0.250000       1.00800           0
      2634 MEMB     20       POPC     H12B     HL       0.250000       1.00800           0
      2635 MEMB     20       POPC     C13      CTL5    -0.350000       12.0110           0
      2636 MEMB     20       POPC     H13A     HL       0.250000       1.00800           0
      2637 MEMB     20       POPC     H13B     HL       0.250000       1.00800           0
      2638 MEMB     20       POPC     H13C     HL       0.250000       1.00800           0
      2639 MEMB     20       POPC     C14      CTL5    -0.350000       12.0110           0
      2640 MEMB     20       POPC     H14A     HL       0.250000       1.00800           0
      2641 MEMB     20       POPC     H14B     HL       0.250000       1.00800           0
      2642 MEMB     20       POPC     H14C     HL       0.250000       1.00800           0
      2643 MEMB     20       POPC     C15      CTL5    -0.350000       12.0110           0
      2644 MEMB     20       POPC     H15A     HL       0.250000       1.00800           0
      2645 MEMB     20       POPC     H15B     HL       0.250000       1.00800           0
      2646 MEMB     20       POPC     H15C     HL       0.250000       1.00800           0
      2647 MEMB     20       POPC     C11      CTL2    -0.800000E-01   12.0110           0
      2648 MEMB     20       POPC     H11A     HAL2     0.900000E-01   1.00800           0
      2649 MEMB     20       POPC     H11B     HAL2     0.900000E-01   1.00800           0
      2650 MEMB     20       POPC     P        PL       1.500000       30.9740           0
      2651 MEMB     20       POPC     O13      O2L     -0.780000       15.9994           0
      2652 MEMB     20       POPC     O14      O2L     -0.780000       15.9994           0
      2653 MEMB     20       POPC     O12      OSLP    -0.570000       15.9994           0
      2654 MEMB     20       POPC     O11      OSLP    -0.570000       15.9994           0
      2655 MEMB     20       POPC     C1       CTL2    -0.800000E-01   12.0110           0
      2656 MEMB     20       POPC     HA       HAL2     0.900000E-01   1.00800           0
      2657 MEMB     20       POPC     HB       HAL2     0.900000E-01   1.00800           0
      2658 MEMB     20       POPC     C2       CTL1     0.170000       12.0110           0
      2659 MEMB     20       POPC     HS       HAL1     0.900000E-01   1.00800           0
      2660 MEMB     20       POPC     O21      OSL     -0.490000       15.9994           0
      2661 MEMB     20       POPC     C21      CL       0.900000       12.0110           0
      2662 MEMB     20       POPC     O22      OBL     -0.630000       15.9994           0
      2663 MEMB     20       POPC     C22      CTL2    -0.220000       12.0110           0
      2664 MEMB     20       POPC     H2R      HAL2     0.900000E-01   1.00800           0
      2665 MEMB     20       POPC     H2S      HAL2     0.900000E-01   1.00800           0
      2666 MEMB     20       POPC     C3       CTL2     0.800000E-01   12.0110           0
      2667 MEMB     20       POPC     HX       HAL2     0.900000E-01   1.00800           0
      2668 MEMB     20       POPC     HY       HAL2     0.900000E-01   1.00800           0
      2669 MEMB     20       POPC     O31      OSL     -0.490000       15.9994           0
      2670 MEMB     20       POPC     C31      CL       0.900000       12.0110           0
      2671 MEMB     20       POPC     O32      OBL     -0.630000       15.9994           0
      2672 MEMB     20       POPC     C32      CTL2    -0.220000       12.0110           0
      2673 MEMB     20       POPC     H2X      HAL2     0.900000E-01   1.00800           0
      2674 MEMB     20       POPC     H2Y      HAL2     0.900000E-01   1.00800           0
      2675 MEMB     20       POPC     C23      CTL2    -0.180000       12.0110           0
      2676 MEMB     20       POPC     H3R      HAL2     0.900000E-01   1.00800           0
      2677 MEMB     20       POPC     H3S      HAL2     0.900000E-01   1.00800           0
      2678 MEMB     20       POPC     C24      CTL2    -0.180000       12.0110           0
      2679 MEMB     20       POPC     H4R      HAL2     0.900000E-01   1.00800           0
      2680 MEMB     20       POPC     H4S      HAL2     0.900000E-01   1.00800           0
      2681 MEMB     20       POPC     C25      CTL2    -0.180000       12.0110           0
      2682 MEMB     20       POPC     H5R      HAL2     0.900000E-01   1.00800           0
      2683 MEMB     20       POPC     H5S      HAL2     0.900000E-01   1.00800           0
      2684 MEMB     20       POPC     C26      CTL2    -0.180000       12.0110           0
      2685 MEMB     20       POPC     H6R      HAL2     0.900000E-01   1.00800           0
      2686 MEMB     20       POPC     H6S      HAL2     0.900000E-01   1.00800           0
      2687 MEMB     20       POPC     C27      CTL2    -0.180000       12.0110           0
      2688 MEMB     20       POPC     H7R      HAL2     0.900000E-01   1.00800           0
      2689 MEMB     20       POPC     H7S      HAL2     0.900000E-01   1.00800           0
      2690 MEMB     20       POPC     C28      CTL2    -0.180000       12.0110           0
      2691 MEMB     20       POPC     H8R      HAL2     0.900000E-01   1.00800           0
      2692 MEMB     20       POPC     H8S      HAL2     0.900000E-01   1.00800           0
      2693 MEMB     20       POPC     C29      CEL1    -0.150000       12.0110           0
      2694 MEMB     20       POPC     H91      HEL1     0.150000       1.00800           0
      2695 MEMB     20       POPC     C210     CEL1    -0.150000       12.0110           0
      2696 MEMB     20       POPC     H101     HEL1     0.150000       1.00800           0
      2697 MEMB     20       POPC     C211     CTL2    -0.180000       12.0110           0
      2698 MEMB     20       POPC     H11R     HAL2     0.900000E-01   1.00800           0
      2699 MEMB     20       POPC     H11S     HAL2     0.900000E-01   1.00800           0
      2700 MEMB     20       POPC     C212     CTL2    -0.180000       12.0110           0
      2701 MEMB     20       POPC     H12R     HAL2     0.900000E-01   1.00800           0
      2702 MEMB     20       POPC     H12S     HAL2     0.900000E-01   1.00800           0
      2703 MEMB     20       POPC     C213     CTL2    -0.180000       12.0110           0
      2704 MEMB     20       POPC     H13R     HAL2     0.900000E-01   1.00800           0
      2705 MEMB     20       POPC     H13S     HAL2     0.900000E-01   1.00800           0
      2706 MEMB     20       POPC     C214     CTL2    -0.180000       12.0110           0
      2707 MEMB     20       POPC     H14R     HAL2     0.900000E-01   1.00800           0
      2708 MEMB     20       POPC     H14S     HAL2     0.900000E-01   1.00800           0
      2709 MEMB     20       POPC     C215     CTL2    -0.180000       12.0110           0
      2710 MEMB     20       POPC     H15R     HAL2     0.900000E-01   1.00800           0
      2711 MEMB     20       POPC     H15S     HAL2     0.900000E-01   1.00800           0
      2712 MEMB     20       POPC     C216     CTL2    -0.180000       12.0110           0
      2713 MEMB     20       POPC     H16R     HAL2     0.900000E-01   1.00800           0
      2714 MEMB     20       POPC     H16S     HAL2     0.900000E-01   1.00800           0
      2715 MEMB     20       POPC     C217     CTL2    -0.180000       12.0110           0
      2716 MEMB     20       POPC     H17R     HAL2     0.900000E-01   1.00800           0
      2717 MEMB     20       POPC     H17S     HAL2     0.900000E-01   1.00800           0
      2718 MEMB     20       POPC     C218     CTL3    -0.270000       12.0110           0
      2719 MEMB     20       POPC     H18R     HAL3     0.900000E-01   1.00800           0
      2720 MEMB     20       POPC     H18S     HAL3     0.900000E-01   1.00800           0
      2721 MEMB     20       POPC     H18T     HAL3     0.900000E-01   1.00800           0
      2722 MEMB     20       POPC     C33      CTL2    -0.180000       12.0110           0
      2723 MEMB     20       POPC     H3X      HAL2     0.900000E-01   1.00800           0
      2724 MEMB     20       POPC     H3Y      HAL2     0.900000E-01   1.00800           0
      2725 MEMB     20       POPC     C34      CTL2    -0.180000       12.0110           0
      2726 MEMB     20       POPC     H4X      HAL2     0.900000E-01   1.00800           0
      2727 MEMB     20       POPC     H4Y      HAL2     0.900000E-01   1.00800           0
      2728 MEMB     20       POPC     C35      CTL2    -0.180000       12.0110           0
      2729 MEMB     20       POPC     H5X      HAL2     0.900000E-01   1.00800           0
      2730 MEMB     20       POPC     H5Y      HAL2     0.900000E-01   1.00800           0
      2731 MEMB     20       POPC     C36      CTL2    -0.180000       12.0110           0
      2732 MEMB     20       POPC     H6X      HAL2     0.900000E-01   1.00800           0
      2733 MEMB     20       POPC     H6Y      HAL2     0.900000E-01   1.00800           0
      2734 MEMB     20       POPC     C37      CTL2    -0.180000       12.0110           0
      2735 MEMB     20       POPC     H7X      HAL2     0.900000E-01   1.00800           0
      2736 MEMB     20       POPC     H7Y      HAL2     0.900000E-01   1.00800           0
      2737 MEMB     20       POPC     C38      CTL2    -0.180000       12.0110           0
      2738 MEMB     20       POPC     H8X      HAL2     0.900000E-01   1.00800           0
      2739 MEMB     20       POPC     H8Y      HAL2     0.900000E-01   1.00800           0
      2740 MEMB     20       POPC     C39      CTL2    -0.180000       12.0110           0
      2741 MEMB     20       POPC     H9X      HAL2     0.900000E-01   1.00800           0
      2742 MEMB     20       POPC     H9Y      HAL2     0.900000E-01   1.00800           0
      2743 MEMB     20       POPC     C310     CTL2    -0.180000       12.0110           0
      2744 MEMB     20       POPC     H10X     HAL2     0.900000E-01   1.00800           0
      2745 MEMB     20       POPC     H10Y     HAL2     0.900000E-01   1.00800           0
      2746 MEMB     20       POPC     C311     CTL2    -0.180000       12.0110           0
      2747 MEMB     20       POPC     H11X     HAL2     0.900000E-01   1.00800           0
      2748 MEMB     20       POPC     H11Y     HAL2     0.900000E-01   1.00800           0
      2749 MEMB     20       POPC     C312     CTL2    -0.180000       12.0110           0
      2750 MEMB     20       POPC     H12X     HAL2     0.900000E-01   1.00800           0
      2751 MEMB     20       POPC     H12Y     HAL2     0.900000E-01   1.00800           0
      2752 MEMB     20       POPC     C313     CTL2    -0.180000       12.0110           0
      2753 MEMB     20       POPC     H13X     HAL2     0.900000E-01   1.00800           0
      2754 MEMB     20       POPC     H13Y     HAL2     0.900000E-01   1.00800           0
      2755 MEMB     20       POPC     C314     CTL2    -0.180000       12.0110           0
      2756 MEMB     20       POPC     H14X     HAL2     0.900000E-01   1.00800           0
      2757 MEMB     20       POPC     H14Y     HAL2     0.900000E-01   1.00800           0
      2758 MEMB     20       POPC     C315     CTL2    -0.180000       12.0110           0
      2759 MEMB     20       POPC     H15X     HAL2     0.900000E-01   1.00800           0
      2760 MEMB     20       POPC     H15Y     HAL2     0.900000E-01   1.00800           0
      2761 MEMB     20       POPC     C316     CTL3    -0.270000       12.0110           0
      2762 MEMB     20       POPC     H16X     HAL3     0.900000E-01   1.00800           0
      2763 MEMB     20       POPC     H16Y     HAL3     0.900000E-01   1.00800           0
      2764 MEMB     20       POPC     H16Z     HAL3     0.900000E-01   1.00800           0
      2765 MEMB     21       POPC     N        NTL     -0.600000       14.0070           0
      2766 MEMB     21       POPC     C12      CTL2    -0.100000       12.0110           0
      2767 MEMB     21       POPC     H12A     HL       0.250000       1.00800           0
      2768 MEMB     21       POPC     H12B     HL       0.250000       1.00800           0
      2769 MEMB     21       POPC     C13      CTL5    -0.350000       12.0110           0
      2770 MEMB     21       POPC     H13A     HL       0.250000       1.00800           0
      2771 MEMB     21       POPC     H13B     HL       0.250000       1.00800           0
      2772 MEMB     21       POPC     H13C     HL       0.250000       1.00800           0
      2773 MEMB     21       POPC     C14      CTL5    -0.350000       12.0110           0
      2774 MEMB     21       POPC     H14A     HL       0.250000       1.00800           0
      2775 MEMB     21       POPC     H14B     HL       0.250000       1.00800           0
      2776 MEMB     21       POPC     H14C     HL       0.250000       1.00800           0
      2777 MEMB     21       POPC     C15      CTL5    -0.350000       12.0110           0
      2778 MEMB     21       POPC     H15A     HL       0.250000       1.00800           0
      2779 MEMB     21       POPC     H15B     HL       0.250000       1.00800           0
      2780 MEMB     21       POPC     H15C     HL       0.250000       1.00800           0
      2781 MEMB     21       POPC     C11      CTL2    -0.800000E-01   12.0110           0
      2782 MEMB     21       POPC     H11A     HAL2     0.900000E-01   1.00800           0
      2783 MEMB     21       POPC     H11B     HAL2     0.900000E-01   1.00800           0
      2784 MEMB     21       POPC     P        PL       1.500000       30.9740           0
      2785 MEMB     21       POPC     O13      O2L     -0.780000       15.9994           0
      2786 MEMB     21       POPC     O14      O2L     -0.780000       15.9994           0
      2787 MEMB     21       POPC     O12      OSLP    -0.570000       15.9994           0
      2788 MEMB     21       POPC     O11      OSLP    -0.570000       15.9994           0
      2789 MEMB     21       POPC     C1       CTL2    -0.800000E-01   12.0110           0
      2790 MEMB     21       POPC     HA       HAL2     0.900000E-01   1.00800           0
      2791 MEMB     21       POPC     HB       HAL2     0.900000E-01   1.00800           0
      2792 MEMB     21       POPC     C2       CTL1     0.170000       12.0110           0
      2793 MEMB     21       POPC     HS       HAL1     0.900000E-01   1.00800           0
      2794 MEMB     21       POPC     O21      OSL     -0.490000       15.9994           0
      2795 MEMB     21       POPC     C21      CL       0.900000       12.0110           0
      2796 MEMB     21       POPC     O22      OBL     -0.630000       15.9994           0
      2797 MEMB     21       POPC     C22      CTL2    -0.220000       12.0110           0
      2798 MEMB     21       POPC     H2R      HAL2     0.900000E-01   1.00800           0
      2799 MEMB     21       POPC     H2S      HAL2     0.900000E-01   1.00800           0
      2800 MEMB     21       POPC     C3       CTL2     0.800000E-01   12.0110           0
      2801 MEMB     21       POPC     HX       HAL2     0.900000E-01   1.00800           0
      2802 MEMB     21       POPC     HY       HAL2     0.900000E-01   1.00800           0
      2803 MEMB     21       POPC     O31      OSL     -0.490000       15.9994           0
      2804 MEMB     21       POPC     C31      CL       0.900000       12.0110           0
      2805 MEMB     21       POPC     O32      OBL     -0.630000       15.9994           0
      2806 MEMB     21       POPC     C32      CTL2    -0.220000       12.0110           0
      2807 MEMB     21       POPC     H2X      HAL2     0.900000E-01   1.00800           0
      2808 MEMB     21       POPC     H2Y      HAL2     0.900000E-01   1.00800           0
      2809 MEMB     21       POPC     C23      CTL2    -0.180000       12.0110           0
      2810 MEMB     21       POPC     H3R      HAL2     0.900000E-01   1.00800           0
      2811 MEMB     21       POPC     H3S      HAL2     0.900000E-01   1.00800           0
      2812 MEMB     21       POPC     C24      CTL2    -0.180000       12.0110           0
      2813 MEMB     21       POPC     H4R      HAL2     0.900000E-01   1.00800           0
      2814 MEMB     21       POPC     H4S      HAL2     0.900000E-01   1.00800           0
      2815 MEMB     21       POPC     C25      CTL2    -0.180000       12.0110           0
      2816 MEMB     21       POPC     H5R      HAL2     0.900000E-01   1.00800           0
      2817 MEMB     21       POPC     H5S      HAL2     0.900000E-01   1.00800           0
      2818 MEMB     21       POPC     C26      CTL2    -0.180000       12.0110           0
      2819 MEMB     21       POPC     H6R      HAL2     0.900000E-01   1.00800           0
      2820 MEMB     21       POPC     H6S      HAL2     0.900000E-01   1.00800           0
      2821 MEMB     21       POPC     C27      CTL2    -0.180000       12.0110           0
      2822 MEMB     21       POPC     H7R      HAL2     0.900000E-01   1.00800           0
      2823 MEMB     21       POPC     H7S      HAL2     0.900000E-01   1.00800           0
      2824 MEMB     21       POPC     C28      CTL2    -0.180000       12.0110           0
      2825 MEMB     21       POPC     H8R      HAL2     0.900000E-01   1.00800           0
      2826 MEMB     21       POPC     H8S      HAL2     0.900000E-01   1.00800           0
      2827 MEMB     21       POPC     C29      CEL1    -0.150000       12.0110           0
      2828 MEMB     21       POPC     H91      HEL1     0.150000       1.00800           0
      2829 MEMB     21       POPC     C210     CEL1    -0.150000       12.0110           0
      2830 MEMB     21       POPC     H101     HEL1     0.150000       1.00800           0
      2831 MEMB     21       POPC     C211     CTL2    -0.180000       12.0110           0
      2832 MEMB     21       POPC     H11R     HAL2     0.900000E-01   1.00800           0
      2833 MEMB     21       POPC     H11S     HAL2     0.900000E-01   1.00800           0
      2834 MEMB     21       POPC     C212     CTL2    -0.180000       12.0110           0
      2835 MEMB     21       POPC     H12R     HAL2     0.900000E-01   1.00800           0
      2836 MEMB     21       POPC     H12S     HAL2     0.900000E-01   1.00800           0
      2837 MEMB     21       POPC     C213     CTL2    -0.180000       12.0110           0
      2838 MEMB     21       POPC     H13R     HAL2     0.900000E-01   1.00800           0
      2839 MEMB     21       POPC     H13S     HAL2     0.900000E-01   1.00800           0
      2840 MEMB     21       POPC     C214     CTL2    -0.180000       12.0110           0
      2841 MEMB     21       POPC     H14R     HAL2     0.900000E-01   1.00800           0
      2842 MEMB     21       POPC     H14S     HAL2     0.900000E-01   1.00800           0
      2843 MEMB     21       POPC     C215     CTL2    -0.180000       12.0110           0
      2844 MEMB     21       POPC     H15R     HAL2     0.900000E-01   1.00800           0
      2845 MEMB     21       POPC     H15S     HAL2     0.900000E-01   1.00800           0
      2846 MEMB     21       POPC     C216     CTL2    -0.180000       12.0110           0
      2847 MEMB     21       POPC     H16R     HAL2     0.900000E-01   1.00800           0
      2848 MEMB     21       POPC     H16S     HAL2     0.900000E-01   1.00800           0
      2849 MEMB     21       POPC     C217     CTL2    -0.180000       12.0110           0
      2850 MEMB     21       POPC     H17R     HAL2     0.900000E-01   1.00800           0
      2851 MEMB     21       POPC     H17S     HAL2     0.900000E-01   1.00800           0
      2852 MEMB     21       POPC     C218     CTL3    -0.270000       12.0110           0
      2853 MEMB     21       POPC     H18R     HAL3     0.900000E-01   1.00800           0
      2854 MEMB     21       POPC     H18S     HAL3     0.900000E-01   1.00800           0
      2855 MEMB     21       POPC     H18T     HAL3     0.900000E-01   1.00800           0
      2856 MEMB     21       POPC     C33      CTL2    -0.180000       12.0110           0
      2857 MEMB     21       POPC     H3X      HAL2     0.900000E-01   1.00800           0
      2858 MEMB     21       POPC     H3Y      HAL2     0.900000E-01   1.00800           0
      2859 MEMB     21       POPC     C34      CTL2    -0.180000       12.0110           0
      2860 MEMB     21       POPC     H4X      HAL2     0.900000E-01   1.00800           0
      2861 MEMB     21       POPC     H4Y      HAL2     0.900000E-01   1.00800           0
      2862 MEMB     21       POPC     C35      CTL2    -0.180000       12.0110           0
      2863 MEMB     21       POPC     H5X      HAL2     0.900000E-01   1.00800           0
      2864 MEMB     21       POPC     H5Y      HAL2     0.900000E-01   1.00800           0
      2865 MEMB     21       POPC     C36      CTL2    -0.180000       12.0110           0
      2866 MEMB     21       POPC     H6X      HAL2     0.900000E-01   1.00800           0
      2867 MEMB     21       POPC     H6Y      HAL2     0.900000E-01   1.00800           0
      2868 MEMB     21       POPC     C37      CTL2    -0.180000       12.0110           0
      2869 MEMB     21       POPC     H7X      HAL2     0.900000E-01   1.00800           0
      2870 MEMB     21       POPC     H7Y      HAL2     0.900000E-01   1.00800           0
      2871 MEMB     21       POPC     C38      CTL2    -0.180000       12.0110           0
      2872 MEMB     21       POPC     H8X      HAL2     0.900000E-01   1.00800           0
      2873 MEMB     21       POPC     H8Y      HAL2     0.900000E-01   1.00800           0
      2874 MEMB     21       POPC     C39      CTL2    -0.180000       12.0110           0
      2875 MEMB     21       POPC     H9X      HAL2     0.900000E-01   1.00800           0
      2876 MEMB     21       POPC     H9Y      HAL2     0.900000E-01   1.00800           0
      2877 MEMB     21       POPC     C310     CTL2    -0.180000       12.0110           0
      2878 MEMB     21       POPC     H10X     HAL2     0.900000E-01   1.00800           0
      2879 MEMB     21       POPC     H10Y     HAL2     0.900000E-01   1.00800           0
      2880 MEMB     21       POPC     C311     CTL2    -0.180000       12.0110           0
      2881 MEMB     21       POPC     H11X     HAL2     0.900000E-01   1.00800           0
      2882 MEMB     21       POPC     H11Y     HAL2     0.900000E-01   1.00800           0
      2883 MEMB     21       POPC     C312     CTL2    -0.180000       12.0110           0
      2884 MEMB     21       POPC     H12X     HAL2     0.900000E-01   1.00800           0
      2885 MEMB     21       POPC     H12Y     HAL2     0.900000E-01   1.00800           0
      2886 MEMB     21       POPC     C313     CTL2    -0.180000       12.0110           0
      2887 MEMB     21       POPC     H13X     HAL2     0.900000E-01   1.00800           0
      2888 MEMB     21       POPC     H13Y     HAL2     0.900000E-01   1.00800           0
      2889 MEMB     21       POPC     C314     CTL2    -0.180000       12.0110           0
      2890 MEMB     21       POPC     H14X     HAL2     0.900000E-01   1.00800           0
      2891 MEMB     21       POPC     H14Y     HAL2     0.900000E-01   1.00800           0
      2892 MEMB     21       POPC     C315     CTL2    -0.180000       12.0110           0
      2893 MEMB     21       POPC     H15X     HAL2     0.900000E-01   1.00800           0
      2894 MEMB     21       POPC     H15Y     HAL2     0.900000E-01   1.00800           0
      2895 MEMB     21       POPC     C316     CTL3    -0.270000       12.0110           0
      2896 MEMB     21       POPC     H16X     HAL3     0.900000E-01   1.00800           0
      2897 MEMB     21       POPC     H16Y     HAL3     0.900000E-01   1.00800           0
      2898 MEMB     21       POPC     H16Z     HAL3     0.900000E-01   1.00800           0
      2899 MEMB     22       POPC     N        NTL     -0.600000       14.0070           0
      2900 MEMB     22       POPC     C12      CTL2    -0.100000       12.0110           0
      2901 MEMB     22       POPC     H12A     HL       0.250000       1.00800           0
      2902 MEMB     22       POPC     H12B     HL       0.250000       1.00800           0
      2903 MEMB     22       POPC     C13      CTL5    -0.350000       12.0110           0
      2904 MEMB     22       POPC     H13A     HL       0.250000       1.00800           0
      2905 MEMB     22       POPC     H13B     HL       0.250000       1.00800           0
      2906 MEMB     22       POPC     H13C     HL       0.250000       1.00800           0
      2907 MEMB     22       POPC     C14      CTL5    -0.350000       12.0110           0
      2908 MEMB     22       POPC     H14A     HL       0.250000       1.00800           0
      2909 MEMB     22       POPC     H14B     HL       0.250000       1.00800           0
      2910 MEMB     22       POPC     H14C     HL       0.250000       1.00800           0
      2911 MEMB     22       POPC     C15      CTL5    -0.350000       12.0110           0
      2912 MEMB     22       POPC     H15A     HL       0.250000       1.00800           0
      2913 MEMB     22       POPC     H15B     HL       0.250000       1.00800           0
      2914 MEMB     22       POPC     H15C     HL       0.250000       1.00800           0
      2915 MEMB     22       POPC     C11      CTL2    -0.800000E-01   12.0110           0
      2916 MEMB     22       POPC     H11A     HAL2     0.900000E-01   1.00800           0
      2917 MEMB     22       POPC     H11B     HAL2     0.900000E-01   1.00800           0
      2918 MEMB     22       POPC     P        PL       1.500000       30.9740           0
      2919 MEMB     22       POPC     O13      O2L     -0.780000       15.9994           0
      2920 MEMB     22       POPC     O14      O2L     -0.780000       15.9994           0
      2921 MEMB     22       POPC     O12      OSLP    -0.570000       15.9994           0
      2922 MEMB     22       POPC     O11      OSLP    -0.570000       15.9994           0
      2923 MEMB     22       POPC     C1       CTL2    -0.800000E-01   12.0110           0
      2924 MEMB     22       POPC     HA       HAL2     0.900000E-01   1.00800           0
      2925 MEMB     22       POPC     HB       HAL2     0.900000E-01   1.00800           0
      2926 MEMB     22       POPC     C2       CTL1     0.170000       12.0110           0
      2927 MEMB     22       POPC     HS       HAL1     0.900000E-01   1.00800           0
      2928 MEMB     22       POPC     O21      OSL     -0.490000       15.9994           0
      2929 MEMB     22       POPC     C21      CL       0.900000       12.0110           0
      2930 MEMB     22       POPC     O22      OBL     -0.630000       15.9994           0
      2931 MEMB     22       POPC     C22      CTL2    -0.220000       12.0110           0
      2932 MEMB     22       POPC     H2R      HAL2     0.900000E-01   1.00800           0
      2933 MEMB     22       POPC     H2S      HAL2     0.900000E-01   1.00800           0
      2934 MEMB     22       POPC     C3       CTL2     0.800000E-01   12.0110           0
      2935 MEMB     22       POPC     HX       HAL2     0.900000E-01   1.00800           0
      2936 MEMB     22       POPC     HY       HAL2     0.900000E-01   1.00800           0
      2937 MEMB     22       POPC     O31      OSL     -0.490000       15.9994           0
      2938 MEMB     22       POPC     C31      CL       0.900000       12.0110           0
      2939 MEMB     22       POPC     O32      OBL     -0.630000       15.9994           0
      2940 MEMB     22       POPC     C32      CTL2    -0.220000       12.0110           0
      2941 MEMB     22       POPC     H2X      HAL2     0.900000E-01   1.00800           0
      2942 MEMB     22       POPC     H2Y      HAL2     0.900000E-01   1.00800           0
      2943 MEMB     22       POPC     C23      CTL2    -0.180000       12.0110           0
      2944 MEMB     22       POPC     H3R      HAL2     0.900000E-01   1.00800           0
      2945 MEMB     22       POPC     H3S      HAL2     0.900000E-01   1.00800           0
      2946 MEMB     22       POPC     C24      CTL2    -0.180000       12.0110           0
      2947 MEMB     22       POPC     H4R      HAL2     0.900000E-01   1.00800           0
      2948 MEMB     22       POPC     H4S      HAL2     0.900000E-01   1.00800           0
      2949 MEMB     22       POPC     C25      CTL2    -0.180000       12.0110           0
      2950 MEMB     22       POPC     H5R      HAL2     0.900000E-01   1.00800           0
      2951 MEMB     22       POPC     H5S      HAL2     0.900000E-01   1.00800           0
      2952 MEMB     22       POPC     C26      CTL2    -0.180000       12.0110           0
      2953 MEMB     22       POPC     H6R      HAL2     0.900000E-01   1.00800           0
      2954 MEMB     22       POPC     H6S      HAL2     0.900000E-01   1.00800           0
      2955 MEMB     22       POPC     C27      CTL2    -0.180000       12.0110           0
      2956 MEMB     22       POPC     H7R      HAL2     0.900000E-01   1.00800           0
      2957 MEMB     22       POPC     H7S      HAL2     0.900000E-01   1.00800           0
      2958 MEMB     22       POPC     C28      CTL2    -0.180000       12.0110           0
      2959 MEMB     22       POPC     H8R      HAL2     0.900000E-01   1.00800           0
      2960 MEMB     22       POPC     H8S      HAL2     0.900000E-01   1.00800           0
      2961 MEMB     22       POPC     C29      CEL1    -0.150000       12.0110           0
      2962 MEMB     22       POPC     H91      HEL1     0.150000       1.00800           0
      2963 MEMB     22       POPC     C210     CEL1    -0.150000       12.0110           0
      2964 MEMB     22       POPC     H101     HEL1     0.150000       1.00800           0
      2965 MEMB     22       POPC     C211     CTL2    -0.180000       12.0110           0
      2966 MEMB     22       POPC     H11R     HAL2     0.900000E-01   1.00800           0
      2967 MEMB     22       POPC     H11S     HAL2     0.900000E-01   1.00800           0
      2968 MEMB     22       POPC     C212     CTL2    -0.180000       12.0110           0
      2969 MEMB     22       POPC     H12R     HAL2     0.900000E-01   1.00800           0
      2970 MEMB     22       POPC     H12S     HAL2     0.900000E-01   1.00800           0
      2971 MEMB     22       POPC     C213     CTL2    -0.180000       12.0110           0
      2972 MEMB     22       POPC     H13R     HAL2     0.900000E-01   1.00800           0
      2973 MEMB     22       POPC     H13S     HAL2     0.900000E-01   1.00800           0
      2974 MEMB     22       POPC     C214     CTL2    -0.180000       12.0110           0
      2975 MEMB     22       POPC     H14R     HAL2     0.900000E-01   1.00800           0
      2976 MEMB     22       POPC     H14S     HAL2     0.900000E-01   1.00800           0
      2977 MEMB     22       POPC     C215     CTL2    -0.180000       12.0110           0
      2978 MEMB     22       POPC     H15R     HAL2     0.900000E-01   1.00800           0
      2979 MEMB     22       POPC     H15S     HAL2     0.900000E-01   1.00800           0
      2980 MEMB     22       POPC     C216     CTL2    -0.180000       12.0110           0
      2981 MEMB     22       POPC     H16R     HAL2     0.900000E-01   1.00800           0
      2982 MEMB     22       POPC     H16S     HAL2     0.900000E-01   1.00800           0
      2983 MEMB     22       POPC     C217     CTL2    -0.180000       12.0110           0
      2984 MEMB     22       POPC     H17R     HAL2     0.900000E-01   1.00800           0
      2985 MEMB     22       POPC     H17S     HAL2     0.900000E-01   1.00800           0
      2986 MEMB     22       POPC     C218     CTL3    -0.270000       12.0110           0
      2987 MEMB     22       POPC     H18R     HAL3     0.900000E-01   1.00800           0
      2988 MEMB     22       POPC     H18S     HAL3     0.900000E-01   1.00800           0
      2989 MEMB     22       POPC     H18T     HAL3     0.900000E-01   1.00800           0
      2990 MEMB     22       POPC     C33      CTL2    -0.180000       12.0110           0
      2991 MEMB     22       POPC     H3X      HAL2     0.900000E-01   1.00800           0
      2992 MEMB     22       POPC     H3Y      HAL2     0.900000E-01   1.00800           0
      2993 MEMB     22       POPC     C34      CTL2    -0.180000       12.0110           0
      2994 MEMB     22       POPC     H4X      HAL2     0.900000E-01   1.00800           0
      2995 MEMB     22       POPC     H4Y      HAL2     0.900000E-01   1.00800           0
      2996 MEMB     22       POPC     C35      CTL2    -0.180000       12.0110           0
      2997 MEMB     22       POPC     H5X      HAL2     0.900000E-01   1.00800           0
      2998 MEMB     22       POPC     H5Y      HAL2     0.900000E-01   1.00800           0
      2999 MEMB     22       POPC     C36      CTL2    -0.180000       12.0110           0
      3000 MEMB     22       POPC     H6X      HAL2     0.900000E-01   1.00800           0
      3001 MEMB     22       POPC     H6Y      HAL2     0.900000E-01   1.00800           0
      3002 MEMB     22       POPC     C37      CTL2    -0.180000       12.0110           0
      3003 MEMB     22       POPC     H7X      HAL2     0.900000E-01   1.00800           0
      3004 MEMB     22       POPC     H7Y      HAL2     0.900000E-01   1.00800           0
      3005 MEMB     22       POPC     C38      CTL2    -0.180000       12.0110           0
      3006 MEMB     22       POPC     H8X      HAL2     0.900000E-01   1.00800           0
      3007 MEMB     22       POPC     H8Y      HAL2     0.900000E-01   1.00800           0
      3008 MEMB     22       POPC     C39      CTL2    -0.180000       12.0110           0
      3009 MEMB     22       POPC     H9X      HAL2     0.900000E-01   1.00800           0
      3010 MEMB     22       POPC     H9Y      HAL2     0.900000E-01   1.00800           0
      3011 MEMB     22       POPC     C310     CTL2    -0.180000       12.0110           0
      3012 MEMB     22       POPC     H10X     HAL2     0.900000E-01   1.00800           0
      3013 MEMB     22       POPC     H10Y     HAL2     0.900000E-01   1.00800           0
      3014 MEMB     22       POPC     C311     CTL2    -0.180000       12.0110           0
      3015 MEMB     22       POPC     H11X     HAL2     0.900000E-01   1.00800           0
      3016 MEMB     22       POPC     H11Y     HAL2     0.900000E-01   1.00800           0
      3017 MEMB     22       POPC     C312     CTL2    -0.180000       12.0110           0
      3018 MEMB     22       POPC     H12X     HAL2     0.900000E-01   1.00800           0
      3019 MEMB     22       POPC     H12Y     HAL2     0.900000E-01   1.00800           0
      3020 MEMB     22       POPC     C313     CTL2    -0.180000       12.0110           0
      3021 MEMB     22       POPC     H13X     HAL2     0.900000E-01   1.00800           0
      3022 MEMB     22       POPC     H13Y     HAL2     0.900000E-01   1.00800           0
      3023 MEMB     22       POPC     C314     CTL2    -0.180000       12.0110           0
      3024 MEMB     22       POPC     H14X     HAL2     0.900000E-01   1.00800           0
      3025 MEMB     22       POPC     H14Y     HAL2     0.900000E-01   1.00800           0
      3026 MEMB     22       POPC     C315     CTL2    -0.180000       12.0110           0
      3027 MEMB     22       POPC     H15X     HAL2     0.900000E-01   1.00800           0
      3028 MEMB     22       POPC     H15Y     HAL2     0.900000E-01   1.00800           0
      3029 MEMB     22       POPC     C316     CTL3    -0.270000       12.0110           0
      3030 MEMB     22       POPC     H16X     HAL3     0.900000E-01   1.00800           0
      3031 MEMB     22       POPC     H16Y     HAL3     0.900000E-01   1.00800           0
      3032 MEMB     22       POPC     H16Z     HAL3     0.900000E-01   1.00800           0
      3033 MEMB     23       POPC     N        NTL     -0.600000       14.0070           0
      3034 MEMB     23       POPC     C12      CTL2    -0.100000       12.0110           0
      3035 MEMB     23       POPC     H12A     HL       0.250000       1.00800           0
      3036 MEMB     23       POPC     H12B     HL       0.250000       1.00800           0
      3037 MEMB     23       POPC     C13      CTL5    -0.350000       12.0110           0
      3038 MEMB     23       POPC     H13A     HL       0.250000       1.00800           0
      3039 MEMB     23       POPC     H13B     HL       0.250000       1.00800           0
      3040 MEMB     23       POPC     H13C     HL       0.250000       1.00800           0
      3041 MEMB     23       POPC     C14      CTL5    -0.350000       12.0110           0
      3042 MEMB     23       POPC     H14A     HL       0.250000       1.00800           0
      3043 MEMB     23       POPC     H14B     HL       0.250000       1.00800           0
      3044 MEMB     23       POPC     H14C     HL       0.250000       1.00800           0
      3045 MEMB     23       POPC     C15      CTL5    -0.350000       12.0110           0
      3046 MEMB     23       POPC     H15A     HL       0.250000       1.00800           0
      3047 MEMB     23       POPC     H15B     HL       0.250000       1.00800           0
      3048 MEMB     23       POPC     H15C     HL       0.250000       1.00800           0
      3049 MEMB     23       POPC     C11      CTL2    -0.800000E-01   12.0110           0
      3050 MEMB     23       POPC     H11A     HAL2     0.900000E-01   1.00800           0
      3051 MEMB     23       POPC     H11B     HAL2     0.900000E-01   1.00800           0
      3052 MEMB     23       POPC     P        PL       1.500000       30.9740           0
      3053 MEMB     23       POPC     O13      O2L     -0.780000       15.9994           0
      3054 MEMB     23       POPC     O14      O2L     -0.780000       15.9994           0
      3055 MEMB     23       POPC     O12      OSLP    -0.570000       15.9994           0
      3056 MEMB     23       POPC     O11      OSLP    -0.570000       15.9994           0
      3057 MEMB     23       POPC     C1       CTL2    -0.800000E-01   12.0110           0
      3058 MEMB     23       POPC     HA       HAL2     0.900000E-01   1.00800           0
      3059 MEMB     23       POPC     HB       HAL2     0.900000E-01   1.00800           0
      3060 MEMB     23       POPC     C2       CTL1     0.170000       12.0110           0
      3061 MEMB     23       POPC     HS       HAL1     0.900000E-01   1.00800           0
      3062 MEMB     23       POPC     O21      OSL     -0.490000       15.9994           0
      3063 MEMB     23       POPC     C21      CL       0.900000       12.0110           0
      3064 MEMB     23       POPC     O22      OBL     -0.630000       15.9994           0
      3065 MEMB     23       POPC     C22      CTL2    -0.220000       12.0110           0
      3066 MEMB     23       POPC     H2R      HAL2     0.900000E-01   1.00800           0
      3067 MEMB     23       POPC     H2S      HAL2     0.900000E-01   1.00800           0
      3068 MEMB     23       POPC     C3       CTL2     0.800000E-01   12.0110           0
      3069 MEMB     23       POPC     HX       HAL2     0.900000E-01   1.00800           0
      3070 MEMB     23       POPC     HY       HAL2     0.900000E-01   1.00800           0
      3071 MEMB     23       POPC     O31      OSL     -0.490000       15.9994           0
      3072 MEMB     23       POPC     C31      CL       0.900000       12.0110           0
      3073 MEMB     23       POPC     O32      OBL     -0.630000       15.9994           0
      3074 MEMB     23       POPC     C32      CTL2    -0.220000       12.0110           0
      3075 MEMB     23       POPC     H2X      HAL2     0.900000E-01   1.00800           0
      3076 MEMB     23       POPC     H2Y      HAL2     0.900000E-01   1.00800           0
      3077 MEMB     23       POPC     C23      CTL2    -0.180000       12.0110           0
      3078 MEMB     23       POPC     H3R      HAL2     0.900000E-01   1.00800           0
      3079 MEMB     23       POPC     H3S      HAL2     0.900000E-01   1.00800           0
      3080 MEMB     23       POPC     C24      CTL2    -0.180000       12.0110           0
      3081 MEMB     23       POPC     H4R      HAL2     0.900000E-01   1.00800           0
      3082 MEMB     23       POPC     H4S      HAL2     0.900000E-01   1.00800           0
      3083 MEMB     23       POPC     C25      CTL2    -0.180000       12.0110           0
      3084 MEMB     23       POPC     H5R      HAL2     0.900000E-01   1.00800           0
      3085 MEMB     23       POPC     H5S      HAL2     0.900000E-01   1.00800           0
      3086 MEMB     23       POPC     C26      CTL2    -0.180000       12.0110           0
      3087 MEMB     23       POPC     H6R      HAL2     0.900000E-01   1.00800           0
      3088 MEMB     23       POPC     H6S      HAL2     0.900000E-01   1.00800           0
      3089 MEMB     23       POPC     C27      CTL2    -0.180000       12.0110           0
      3090 MEMB     23       POPC     H7R      HAL2     0.900000E-01   1.00800           0
      3091 MEMB     23       POPC     H7S      HAL2     0.900000E-01   1.00800           0
      3092 MEMB     23       POPC     C28      CTL2    -0.180000       12.0110           0
      3093 MEMB     23       POPC     H8R      HAL2     0.900000E-01   1.00800           0
      3094 MEMB     23       POPC     H8S      HAL2     0.900000E-01   1.00800           0
      3095 MEMB     23       POPC     C29      CEL1    -0.150000       12.0110           0
      3096 MEMB     23       POPC     H91      HEL1     0.150000       1.00800           0
      3097 MEMB     23       POPC     C210     CEL1    -0.150000       12.0110           0
      3098 MEMB     23       POPC     H101     HEL1     0.150000       1.00800           0
      3099 MEMB     23       POPC     C211     CTL2    -0.180000       12.0110           0
      3100 MEMB     23       POPC     H11R     HAL2     0.900000E-01   1.00800           0
      3101 MEMB     23       POPC     H11S     HAL2     0.900000E-01   1.00800           0
      3102 MEMB     23       POPC     C212     CTL2    -0.180000       12.0110           0
      3103 MEMB     23       POPC     H12R     HAL2     0.900000E-01   1.00800           0
      3104 MEMB     23       POPC     H12S     HAL2     0.900000E-01   1.00800           0
      3105 MEMB     23       POPC     C213     CTL2    -0.180000       12.0110           0
      3106 MEMB     23       POPC     H13R     HAL2     0.900000E-01   1.00800           0
      3107 MEMB     23       POPC     H13S     HAL2     0.900000E-01   1.00800           0
      3108 MEMB     23       POPC     C214     CTL2    -0.180000       12.0110           0
      3109 MEMB     23       POPC     H14R     HAL2     0.900000E-01   1.00800           0
      3110 MEMB     23       POPC     H14S     HAL2     0.900000E-01   1.00800           0
      3111 MEMB     23       POPC     C215     CTL2    -0.180000       12.0110           0
      3112 MEMB     23       POPC     H15R     HAL2     0.900000E-01   1.00800           0
      3113 MEMB     23       POPC     H15S     HAL2     0.900000E-01   1.00800           0
      3114 MEMB     23       POPC     C216     CTL2    -0.180000       12.0110           0
      3115 MEMB     23       POPC     H16R     HAL2     0.900000E-01   1.00800           0
      3116 MEMB     23       POPC     H16S     HAL2     0.900000E-01   1.00800           0
      3117 MEMB     23       POPC     C217     CTL2    -0.180000       12.0110           0
      3118 MEMB     23       POPC     H17R     HAL2     0.900000E-01   1.00800           0
      3119 MEMB     23       POPC     H17S     HAL2     0.900000E-01   1.00800           0
      3120 MEMB     23       POPC     C218     CTL3    -0.270000       12.0110           0
      3121 MEMB     23       POPC     H18R     HAL3     0.900000E-01   1.00800           0
      3122 MEMB     23       POPC     H18S     HAL3     0.900000E-01   1.00800           0
      3123 MEMB     23       POPC     H18T     HAL3     0.900000E-01   1.00800           0
      3124 MEMB     23       POPC     C33      CTL2    -0.180000       12.0110           0
      3125 MEMB     23       POPC     H3X      HAL2     0.900000E-01   1.00800           0
      3126 MEMB     23       POPC     H3Y      HAL2     0.900000E-01   1.00800           0
      3127 MEMB     23       POPC     C34      CTL2    -0.180000       12.0110           0
      3128 MEMB     23       POPC     H4X      HAL2     0.900000E-01   1.00800           0
      3129 MEMB     23       POPC     H4Y      HAL2     0.900000E-01   1.00800           0
      3130 MEMB     23       POPC     C35      CTL2    -0.180000       12.0110           0
      3131 MEMB     23       POPC     H5X      HAL2     0.900000E-01   1.00800           0
      3132 MEMB     23       POPC     H5Y      HAL2     0.900000E-01   1.00800           0
      3133 MEMB     23       POPC     C36      CTL2    -0.180000       12.0110           0
      3134 MEMB     23       POPC     H6X      HAL2     0.900000E-01   1.00800           0
      3135 MEMB     23       POPC     H6Y      HAL2     0.900000E-01   1.00800           0
      3136 MEMB     23       POPC     C37      CTL2    -0.180000       12.0110           0
      3137 MEMB     23       POPC     H7X      HAL2     0.900000E-01   1.00800           0
      3138 MEMB     23       POPC     H7Y      HAL2     0.900000E-01   1.00800           0
      3139 MEMB     23       POPC     C38      CTL2    -0.180000       12.0110           0
      3140 MEMB     23       POPC     H8X      HAL2     0.900000E-01   1.00800           0
      3141 MEMB     23       POPC     H8Y      HAL2     0.900000E-01   1.00800           0
      3142 MEMB     23       POPC     C39      CTL2    -0.180000       12.0110           0
      3143 MEMB     23       POPC     H9X      HAL2     0.900000E-01   1.00800           0
      3144 MEMB     23       POPC     H9Y      HAL2     0.900000E-01   1.00800           0
      3145 MEMB     23       POPC     C310     CTL2    -0.180000       12.0110           0
      3146 MEMB     23       POPC     H10X     HAL2     0.900000E-01   1.00800           0
      3147 MEMB     23       POPC     H10Y     HAL2     0.900000E-01   1.00800           0
      3148 MEMB     23       POPC     C311     CTL2    -0.180000       12.0110           0
      3149 MEMB     23       POPC     H11X     HAL2     0.900000E-01   1.00800           0
      3150 MEMB     23       POPC     H11Y     HAL2     0.900000E-01   1.00800           0
      3151 MEMB     23       POPC     C312     CTL2    -0.180000       12.0110           0
      3152 MEMB     23       POPC     H12X     HAL2     0.900000E-01   1.00800           0
      3153 MEMB     23       POPC     H12Y     HAL2     0.900000E-01   1.00800           0
      3154 MEMB     23       POPC     C313     CTL2    -0.180000       12.0110           0
      3155 MEMB     23       POPC     H13X     HAL2     0.900000E-01   1.00800           0
      3156 MEMB     23       POPC     H13Y     HAL2     0.900000E-01   1.00800           0
      3157 MEMB     23       POPC     C314     CTL2    -0.180000       12.0110           0
      3158 MEMB     23       POPC     H14X     HAL2     0.900000E-01   1.00800           0
      3159 MEMB     23       POPC     H14Y     HAL2     0.900000E-01   1.00800           0
      3160 MEMB     23       POPC     C315     CTL2    -0.180000       12.0110           0
      3161 MEMB     23       POPC     H15X     HAL2     0.900000E-01   1.00800           0
      3162 MEMB     23       POPC     H15Y     HAL2     0.900000E-01   1.00800           0
      3163 MEMB     23       POPC     C316     CTL3    -0.270000       12.0110           0
      3164 MEMB     23       POPC     H16X     HAL3     0.900000E-01   1.00800           0
      3165 MEMB     23       POPC     H16Y     HAL3     0.900000E-01   1.00800           0
      3166 MEMB     23       POPC     H16Z     HAL3     0.900000E-01   1.00800           0
      3167 MEMB     24       POPC     N        NTL     -0.600000       14.0070           0
      3168 MEMB     24       POPC     C12      CTL2    -0.100000       12.0110           0
      3169 MEMB     24       POPC     H12A     HL       0.250000       1.00800           0
      3170 MEMB     24       POPC     H12B     HL       0.250000       1.00800           0
      3171 MEMB     24       POPC     C13      CTL5    -0.350000       12.0110           0
      3172 MEMB     24       POPC     H13A     HL       0.250000       1.00800           0
      3173 MEMB     24       POPC     H13B     HL       0.250000       1.00800           0
      3174 MEMB     24       POPC     H13C     HL       0.250000       1.00800           0
      3175 MEMB     24       POPC     C14      CTL5    -0.350000       12.0110           0
      3176 MEMB     24       POPC     H14A     HL       0.250000       1.00800           0
      3177 MEMB     24       POPC     H14B     HL       0.250000       1.00800           0
      3178 MEMB     24       POPC     H14C     HL       0.250000       1.00800           0
      3179 MEMB     24       POPC     C15      CTL5    -0.350000       12.0110           0
      3180 MEMB     24       POPC     H15A     HL       0.250000       1.00800           0
      3181 MEMB     24       POPC     H15B     HL       0.250000       1.00800           0
      3182 MEMB     24       POPC     H15C     HL       0.250000       1.00800           0
      3183 MEMB     24       POPC     C11      CTL2    -0.800000E-01   12.0110           0
      3184 MEMB     24       POPC     H11A     HAL2     0.900000E-01   1.00800           0
      3185 MEMB     24       POPC     H11B     HAL2     0.900000E-01   1.00800           0
      3186 MEMB     24       POPC     P        PL       1.500000       30.9740           0
      3187 MEMB     24       POPC     O13      O2L     -0.780000       15.9994           0
      3188 MEMB     24       POPC     O14      O2L     -0.780000       15.9994           0
      3189 MEMB     24       POPC     O12      OSLP    -0.570000       15.9994           0
      3190 MEMB     24       POPC     O11      OSLP    -0.570000       15.9994           0
      3191 MEMB     24       POPC     C1       CTL2    -0.800000E-01   12.0110           0
      3192 MEMB     24       POPC     HA       HAL2     0.900000E-01   1.00800           0
      3193 MEMB     24       POPC     HB       HAL2     0.900000E-01   1.00800           0
      3194 MEMB     24       POPC     C2       CTL1     0.170000       12.0110           0
      3195 MEMB     24       POPC     HS       HAL1     0.900000E-01   1.00800           0
      3196 MEMB     24       POPC     O21      OSL     -0.490000       15.9994           0
      3197 MEMB     24       POPC     C21      CL       0.900000       12.0110           0
      3198 MEMB     24       POPC     O22      OBL     -0.630000       15.9994           0
      3199 MEMB     24       POPC     C22      CTL2    -0.220000       12.0110           0
      3200 MEMB     24       POPC     H2R      HAL2     0.900000E-01   1.00800           0
      3201 MEMB     24       POPC     H2S      HAL2     0.900000E-01   1.00800           0
      3202 MEMB     24       POPC     C3       CTL2     0.800000E-01   12.0110           0
      3203 MEMB     24       POPC     HX       HAL2     0.900000E-01   1.00800           0
      3204 MEMB     24       POPC     HY       HAL2     0.900000E-01   1.00800           0
      3205 MEMB     24       POPC     O31      OSL     -0.490000       15.9994           0
      3206 MEMB     24       POPC     C31      CL       0.900000       12.0110           0
      3207 MEMB     24       POPC     O32      OBL     -0.630000       15.9994           0
      3208 MEMB     24       POPC     C32      CTL2    -0.220000       12.0110           0
      3209 MEMB     24       POPC     H2X      HAL2     0.900000E-01   1.00800           0
      3210 MEMB     24       POPC     H2Y      HAL2     0.900000E-01   1.00800           0
      3211 MEMB     24       POPC     C23      CTL2    -0.180000       12.0110           0
      3212 MEMB     24       POPC     H3R      HAL2     0.900000E-01   1.00800           0
      3213 MEMB     24       POPC     H3S      HAL2     0.900000E-01   1.00800           0
      3214 MEMB     24       POPC     C24      CTL2    -0.180000       12.0110           0
      3215 MEMB     24       POPC     H4R      HAL2     0.900000E-01   1.00800           0
      3216 MEMB     24       POPC     H4S      HAL2     0.900000E-01   1.00800           0
      3217 MEMB     24       POPC     C25      CTL2    -0.180000       12.0110           0
      3218 MEMB     24       POPC     H5R      HAL2     0.900000E-01   1.00800           0
      3219 MEMB     24       POPC     H5S      HAL2     0.900000E-01   1.00800           0
      3220 MEMB     24       POPC     C26      CTL2    -0.180000       12.0110           0
      3221 MEMB     24       POPC     H6R      HAL2     0.900000E-01   1.00800           0
      3222 MEMB     24       POPC     H6S      HAL2     0.900000E-01   1.00800           0
      3223 MEMB     24       POPC     C27      CTL2    -0.180000       12.0110           0
      3224 MEMB     24       POPC     H7R      HAL2     0.900000E-01   1.00800           0
      3225 MEMB     24       POPC     H7S      HAL2     0.900000E-01   1.00800           0
      3226 MEMB     24       POPC     C28      CTL2    -0.180000       12.0110           0
      3227 MEMB     24       POPC     H8R      HAL2     0.900000E-01   1.00800           0
      3228 MEMB     24       POPC     H8S      HAL2     0.900000E-01   1.00800           0
      3229 MEMB     24       POPC     C29      CEL1    -0.150000       12.0110           0
      3230 MEMB     24       POPC     H91      HEL1     0.150000       1.00800           0
      3231 MEMB     24       POPC     C210     CEL1    -0.150000       12.0110           0
      3232 MEMB     24       POPC     H101     HEL1     0.150000       1.00800           0
      3233 MEMB     24       POPC     C211     CTL2    -0.180000       12.0110           0
      3234 MEMB     24       POPC     H11R     HAL2     0.900000E-01   1.00800           0
      3235 MEMB     24       POPC     H11S     HAL2     0.900000E-01   1.00800           0
      3236 MEMB     24       POPC     C212     CTL2    -0.180000       12.0110           0
      3237 MEMB     24       POPC     H12R     HAL2     0.900000E-01   1.00800           0
      3238 MEMB     24       POPC     H12S     HAL2     0.900000E-01   1.00800           0
      3239 MEMB     24       POPC     C213     CTL2    -0.180000       12.0110           0
      3240 MEMB     24       POPC     H13R     HAL2     0.900000E-01   1.00800           0
      3241 MEMB     24       POPC     H13S     HAL2     0.900000E-01   1.00800           0
      3242 MEMB     24       POPC     C214     CTL2    -0.180000       12.0110           0
      3243 MEMB     24       POPC     H14R     HAL2     0.900000E-01   1.00800           0
      3244 MEMB     24       POPC     H14S     HAL2     0.900000E-01   1.00800           0
      3245 MEMB     24       POPC     C215     CTL2    -0.180000       12.0110           0
      3246 MEMB     24       POPC     H15R     HAL2     0.900000E-01   1.00800           0
      3247 MEMB     24       POPC     H15S     HAL2     0.900000E-01   1.00800           0
      3248 MEMB     24       POPC     C216     CTL2    -0.180000       12.0110           0
      3249 MEMB     24       POPC     H16R     HAL2     0.900000E-01   1.00800           0
      3250 MEMB     24       POPC     H16S     HAL2     0.900000E-01   1.00800           0
      3251 MEMB     24       POPC     C217     CTL2    -0.180000       12.0110           0
      3252 MEMB     24       POPC     H17R     HAL2     0.900000E-01   1.00800           0
      3253 MEMB     24       POPC     H17S     HAL2     0.900000E-01   1.00800           0
      3254 MEMB     24       POPC     C218     CTL3    -0.270000       12.0110           0
      3255 MEMB     24       POPC     H18R     HAL3     0.900000E-01   1.00800           0
      3256 MEMB     24       POPC     H18S     HAL3     0.900000E-01   1.00800           0
      3257 MEMB     24       POPC     H18T     HAL3     0.900000E-01   1.00800           0
      3258 MEMB     24       POPC     C33      CTL2    -0.180000       12.0110           0
      3259 MEMB     24       POPC     H3X      HAL2     0.900000E-01   1.00800           0
      3260 MEMB     24       POPC     H3Y      HAL2     0.900000E-01   1.00800           0
      3261 MEMB     24       POPC     C34      CTL2    -0.180000       12.0110           0
      3262 MEMB     24       POPC     H4X      HAL2     0.900000E-01   1.00800           0
      3263 MEMB     24       POPC     H4Y      HAL2     0.900000E-01   1.00800           0
      3264 MEMB     24       POPC     C35      CTL2    -0.180000       12.0110           0
      3265 MEMB     24       POPC     H5X      HAL2     0.900000E-01   1.00800           0
      3266 MEMB     24       POPC     H5Y      HAL2     0.900000E-01   1.00800           0
      3267 MEMB     24       POPC     C36      CTL2    -0.180000       12.0110           0
      3268 MEMB     24       POPC     H6X      HAL2     0.900000E-01   1.00800           0
      3269 MEMB     24       POPC     H6Y      HAL2     0.900000E-01   1.00800           0
      3270 MEMB     24       POPC     C37      CTL2    -0.180000       12.0110           0
      3271 MEMB     24       POPC     H7X      HAL2     0.900000E-01   1.00800           0
      3272 MEMB     24       POPC     H7Y      HAL2     0.900000E-01   1.00800           0
      3273 MEMB     24       POPC     C38      CTL2    -0.180000       12.0110           0
      3274 MEMB     24       POPC     H8X      HAL2     0.900000E-01   1.00800           0
      3275 MEMB     24       POPC     H8Y      HAL2     0.900000E-01   1.00800           0
      3276 MEMB     24       POPC     C39      CTL2    -0.180000       12.0110           0
      3277 MEMB     24       POPC     H9X      HAL2     0.900000E-01   1.00800           0
      3278 MEMB     24       POPC     H9Y      HAL2     0.900000E-01   1.00800           0
      3279 MEMB     24       POPC     C310     CTL2    -0.180000       12.0110           0
      3280 MEMB     24       POPC     H10X     HAL2     0.900000E-01   1.00800           0
      3281 MEMB     24       POPC     H10Y     HAL2     0.900000E-01   1.00800           0
      3282 MEMB     24       POPC     C311     CTL2    -0.180000       12.0110           0
      3283 MEMB     24       POPC     H11X     HAL2     0.900000E-01   1.00800           0
      3284 MEMB     24       POPC     H11Y     HAL2     0.900000E-01   1.00800           0
      3285 MEMB     24       POPC     C312     CTL2    -0.180000       12.0110           0
      3286 MEMB     24       POPC     H12X     HAL2     0.900000E-01   1.00800           0
      3287 MEMB     24       POPC     H12Y     HAL2     0.900000E-01   1.00800           0
      3288 MEMB     24       POPC     C313     CTL2    -0.180000       12.0110           0
      3289 MEMB     24       POPC     H13X     HAL2     0.900000E-01   1.00800           0
      3290 MEMB     24       POPC     H13Y     HAL2     0.900000E-01   1.00800           0
      3291 MEMB     24       POPC     C314     CTL2    -0.180000       12.0110           0
      3292 MEMB     24       POPC     H14X     HAL2     0.900000E-01   1.00800           0
      3293 MEMB     24       POPC     H14Y     HAL2     0.900000E-01   1.00800           0
      3294 MEMB     24       POPC     C315     CTL2    -0.180000       12.0110           0
      3295 MEMB     24       POPC     H15X     HAL2     0.900000E-01   1.00800           0
      3296 MEMB     24       POPC     H15Y     HAL2     0.900000E-01   1.00800           0
      3297 MEMB     24       POPC     C316     CTL3    -0.270000       12.0110           0
      3298 MEMB     24       POPC     H16X     HAL3     0.900000E-01   1.00800           0
      3299 MEMB     24       POPC     H16Y     HAL3     0.900000E-01   1.00800           0
      3300 MEMB     24       POPC     H16Z     HAL3     0.900000E-01   1.00800           0
      3301 MEMB     25       POPS     N        NH3L    -0.300000       14.0070           0
      3302 MEMB     25       POPS     HN1      HCL      0.330000       1.00800           0
      3303 MEMB     25       POPS     HN2      HCL      0.330000       1.00800           0
      3304 MEMB     25       POPS     HN3      HCL      0.330000       1.00800           0
      3305 MEMB     25       POPS     C12      CTL1     0.210000       12.0110           0
      3306 MEMB     25       POPS     H12A     HBL      0.100000       1.00800           0
      3307 MEMB     25       POPS     C13      CCL      0.340000       12.0110           0
      3308 MEMB     25       POPS     O13A     OCL     -0.670000       15.9994           0
      3309 MEMB     25       POPS     O13B     OCL     -0.670000       15.9994           0
      3310 MEMB     25       POPS     C11      CTL2    -0.800000E-01   12.0110           0
      3311 MEMB     25       POPS     H11A     HAL2     0.900000E-01   1.00800           0
      3312 MEMB     25       POPS     H11B     HAL2     0.900000E-01   1.00800           0
      3313 MEMB     25       POPS     P        PL       1.500000       30.9740           0
      3314 MEMB     25       POPS     O13      O2L     -0.780000       15.9994           0
      3315 MEMB     25       POPS     O14      O2L     -0.780000       15.9994           0
      3316 MEMB     25       POPS     O12      OSLP    -0.570000       15.9994           0
      3317 MEMB     25       POPS     O11      OSLP    -0.570000       15.9994           0
      3318 MEMB     25       POPS     C1       CTL2    -0.800000E-01   12.0110           0
      3319 MEMB     25       POPS     HA       HAL2     0.900000E-01   1.00800           0
      3320 MEMB     25       POPS     HB       HAL2     0.900000E-01   1.00800           0
      3321 MEMB     25       POPS     C2       CTL1     0.170000       12.0110           0
      3322 MEMB     25       POPS     HS       HAL1     0.900000E-01   1.00800           0
      3323 MEMB     25       POPS     O21      OSL     -0.490000       15.9994           0
      3324 MEMB     25       POPS     C21      CL       0.900000       12.0110           0
      3325 MEMB     25       POPS     O22      OBL     -0.630000       15.9994           0
      3326 MEMB     25       POPS     C22      CTL2    -0.220000       12.0110           0
      3327 MEMB     25       POPS     H2R      HAL2     0.900000E-01   1.00800           0
      3328 MEMB     25       POPS     H2S      HAL2     0.900000E-01   1.00800           0
      3329 MEMB     25       POPS     C3       CTL2     0.800000E-01   12.0110           0
      3330 MEMB     25       POPS     HX       HAL2     0.900000E-01   1.00800           0
      3331 MEMB     25       POPS     HY       HAL2     0.900000E-01   1.00800           0
      3332 MEMB     25       POPS     O31      OSL     -0.490000       15.9994           0
      3333 MEMB     25       POPS     C31      CL       0.900000       12.0110           0
      3334 MEMB     25       POPS     O32      OBL     -0.630000       15.9994           0
      3335 MEMB     25       POPS     C32      CTL2    -0.220000       12.0110           0
      3336 MEMB     25       POPS     H2X      HAL2     0.900000E-01   1.00800           0
      3337 MEMB     25       POPS     H2Y      HAL2     0.900000E-01   1.00800           0
      3338 MEMB     25       POPS     C23      CTL2    -0.180000       12.0110           0
      3339 MEMB     25       POPS     H3R      HAL2     0.900000E-01   1.00800           0
      3340 MEMB     25       POPS     H3S      HAL2     0.900000E-01   1.00800           0
      3341 MEMB     25       POPS     C24      CTL2    -0.180000       12.0110           0
      3342 MEMB     25       POPS     H4R      HAL2     0.900000E-01   1.00800           0
      3343 MEMB     25       POPS     H4S      HAL2     0.900000E-01   1.00800           0
      3344 MEMB     25       POPS     C25      CTL2    -0.180000       12.0110           0
      3345 MEMB     25       POPS     H5R      HAL2     0.900000E-01   1.00800           0
      3346 MEMB     25       POPS     H5S      HAL2     0.900000E-01   1.00800           0
      3347 MEMB     25       POPS     C26      CTL2    -0.180000       12.0110           0
      3348 MEMB     25       POPS     H6R      HAL2     0.900000E-01   1.00800           0
      3349 MEMB     25       POPS     H6S      HAL2     0.900000E-01   1.00800           0
      3350 MEMB     25       POPS     C27      CTL2    -0.180000       12.0110           0
      3351 MEMB     25       POPS     H7R      HAL2     0.900000E-01   1.00800           0
      3352 MEMB     25       POPS     H7S      HAL2     0.900000E-01   1.00800           0
      3353 MEMB     25       POPS     C28      CTL2    -0.180000       12.0110           0
      3354 MEMB     25       POPS     H8R      HAL2     0.900000E-01   1.00800           0
      3355 MEMB     25       POPS     H8S      HAL2     0.900000E-01   1.00800           0
      3356 MEMB     25       POPS     C29      CEL1    -0.150000       12.0110           0
      3357 MEMB     25       POPS     H91      HEL1     0.150000       1.00800           0
      3358 MEMB     25       POPS     C210     CEL1    -0.150000       12.0110           0
      3359 MEMB     25       POPS     H101     HEL1     0.150000       1.00800           0
      3360 MEMB     25       POPS     C211     CTL2    -0.180000       12.0110           0
      3361 MEMB     25       POPS     H11R     HAL2     0.900000E-01   1.00800           0
      3362 MEMB     25       POPS     H11S     HAL2     0.900000E-01   1.00800           0
      3363 MEMB     25       POPS     C212     CTL2    -0.180000       12.0110           0
      3364 MEMB     25       POPS     H12R     HAL2     0.900000E-01   1.00800           0
      3365 MEMB     25       POPS     H12S     HAL2     0.900000E-01   1.00800           0
      3366 MEMB     25       POPS     C213     CTL2    -0.180000       12.0110           0
      3367 MEMB     25       POPS     H13R     HAL2     0.900000E-01   1.00800           0
      3368 MEMB     25       POPS     H13S     HAL2     0.900000E-01   1.00800           0
      3369 MEMB     25       POPS     C214     CTL2    -0.180000       12.0110           0
      3370 MEMB     25       POPS     H14R     HAL2     0.900000E-01   1.00800           0
      3371 MEMB     25       POPS     H14S     HAL2     0.900000E-01   1.00800           0
      3372 MEMB     25       POPS     C215     CTL2    -0.180000       12.0110           0
      3373 MEMB     25       POPS     H15R     HAL2     0.900000E-01   1.00800           0
      3374 MEMB     25       POPS     H15S     HAL2     0.900000E-01   1.00800           0
      3375 MEMB     25       POPS     C216     CTL2    -0.180000       12.0110           0
      3376 MEMB     25       POPS     H16R     HAL2     0.900000E-01   1.00800           0
      3377 MEMB     25       POPS     H16S     HAL2     0.900000E-01   1.00800           0
      3378 MEMB     25       POPS     C217     CTL2    -0.180000       12.0110           0
      3379 MEMB     25       POPS     H17R     HAL2     0.900000E-01   1.00800           0
      3380 MEMB     25       POPS     H17S     HAL2     0.900000E-01   1.00800           0
      3381 MEMB     25       POPS     C218     CTL3    -0.270000       12.0110           0
      3382 MEMB     25       POPS     H18R     HAL3     0.900000E-01   1.00800           0
      3383 MEMB     25       POPS     H18S     HAL3     0.900000E-01   1.00800           0
      3384 MEMB     25       POPS     H18T     HAL3     0.900000E-01   1.00800           0
      3385 MEMB     25       POPS     C33      CTL2    -0.180000       12.0110           0
      3386 MEMB     25       POPS     H3X      HAL2     0.900000E-01   1.00800           0
      3387 MEMB     25       POPS     H3Y      HAL2     0.900000E-01   1.00800           0
      3388 MEMB     25       POPS     C34      CTL2    -0.180000       12.0110           0
      3389 MEMB     25       POPS     H4X      HAL2     0.900000E-01   1.00800           0
      3390 MEMB     25       POPS     H4Y      HAL2     0.900000E-01   1.00800           0
      3391 MEMB     25       POPS     C35      CTL2    -0.180000       12.0110           0
      3392 MEMB     25       POPS     H5X      HAL2     0.900000E-01   1.00800           0
      3393 MEMB     25       POPS     H5Y      HAL2     0.900000E-01   1.00800           0
      3394 MEMB     25       POPS     C36      CTL2    -0.180000       12.0110           0
      3395 MEMB     25       POPS     H6X      HAL2     0.900000E-01   1.00800           0
      3396 MEMB     25       POPS     H6Y      HAL2     0.900000E-01   1.00800           0
      3397 MEMB     25       POPS     C37      CTL2    -0.180000       12.0110           0
      3398 MEMB     25       POPS     H7X      HAL2     0.900000E-01   1.00800           0
      3399 MEMB     25       POPS     H7Y      HAL2     0.900000E-01   1.00800           0
      3400 MEMB     25       POPS     C38      CTL2    -0.180000       12.0110           0
      3401 MEMB     25       POPS     H8X      HAL2     0.900000E-01   1.00800           0
      3402 MEMB     25       POPS     H8Y      HAL2     0.900000E-01   1.00800           0
      3403 MEMB     25       POPS     C39      CTL2    -0.180000       12.0110           0
      3404 MEMB     25       POPS     H9X      HAL2     0.900000E-01   1.00800           0
      3405 MEMB     25       POPS     H9Y      HAL2     0.900000E-01   1.00800           0
      3406 MEMB     25       POPS     C310     CTL2    -0.180000       12.0110           0
      3407 MEMB     25       POPS     H10X     HAL2     0.900000E-01   1.00800           0
      3408 MEMB     25       POPS     H10Y     HAL2     0.900000E-01   1.00800           0
      3409 MEMB     25       POPS     C311     CTL2    -0.180000       12.0110           0
      3410 MEMB     25       POPS     H11X     HAL2     0.900000E-01   1.00800           0
      3411 MEMB     25       POPS     H11Y     HAL2     0.900000E-01   1.00800           0
      3412 MEMB     25       POPS     C312     CTL2    -0.180000       12.0110           0
      3413 MEMB     25       POPS     H12X     HAL2     0.900000E-01   1.00800           0
      3414 MEMB     25       POPS     H12Y     HAL2     0.900000E-01   1.00800           0
      3415 MEMB     25       POPS     C313     CTL2    -0.180000       12.0110           0
      3416 MEMB     25       POPS     H13X     HAL2     0.900000E-01   1.00800           0
      3417 MEMB     25       POPS     H13Y     HAL2     0.900000E-01   1.00800           0
      3418 MEMB     25       POPS     C314     CTL2    -0.180000       12.0110           0
      3419 MEMB     25       POPS     H14X     HAL2     0.900000E-01   1.00800           0
      3420 MEMB     25       POPS     H14Y     HAL2     0.900000E-01   1.00800           0
      3421 MEMB     25       POPS     C315     CTL2    -0.180000       12.0110           0
      3422 MEMB     25       POPS     H15X     HAL2     0.900000E-01   1.00800           0
      3423 MEMB     25       POPS     H15Y     HAL2     0.900000E-01   1.00800           0
      3424 MEMB     25       POPS     C316     CTL3    -0.270000       12.0110           0
      3425 MEMB     25       POPS     H16X     HAL3     0.900000E-01   1.00800           0
      3426 MEMB     25       POPS     H16Y     HAL3     0.900000E-01   1.00800           0
      3427 MEMB     25       POPS     H16Z     HAL3     0.900000E-01   1.00800           0
      3428 MEMB     26       POPC     N        NTL     -0.600000       14.0070           0
      3429 MEMB     26       POPC     C12      CTL2    -0.100000       12.0110           0
      3430 MEMB     26       POPC     H12A     HL       0.250000       1.00800           0
      3431 MEMB     26       POPC     H12B     HL       0.250000       1.00800           0
      3432 MEMB     26       POPC     C13      CTL5    -0.350000       12.0110           0
      3433 MEMB     26       POPC     H13A     HL       0.250000       1.00800           0
      3434 MEMB     26       POPC     H13B     HL       0.250000       1.00800           0
      3435 MEMB     26       POPC     H13C     HL       0.250000       1.00800           0
      3436 MEMB     26       POPC     C14      CTL5    -0.350000       12.0110           0
      3437 MEMB     26       POPC     H14A     HL       0.250000       1.00800           0
      3438 MEMB     26       POPC     H14B     HL       0.250000       1.00800           0
      3439 MEMB     26       POPC     H14C     HL       0.250000       1.00800           0
      3440 MEMB     26       POPC     C15      CTL5    -0.350000       12.0110           0
      3441 MEMB     26       POPC     H15A     HL       0.250000       1.00800           0
      3442 MEMB     26       POPC     H15B     HL       0.250000       1.00800           0
      3443 MEMB     26       POPC     H15C     HL       0.250000       1.00800           0
      3444 MEMB     26       POPC     C11      CTL2    -0.800000E-01   12.0110           0
      3445 MEMB     26       POPC     H11A     HAL2     0.900000E-01   1.00800           0
      3446 MEMB     26       POPC     H11B     HAL2     0.900000E-01   1.00800           0
      3447 MEMB     26       POPC     P        PL       1.500000       30.9740           0
      3448 MEMB     26       POPC     O13      O2L     -0.780000       15.9994           0
      3449 MEMB     26       POPC     O14      O2L     -0.780000       15.9994           0
      3450 MEMB     26       POPC     O12      OSLP    -0.570000       15.9994           0
      3451 MEMB     26       POPC     O11      OSLP    -0.570000       15.9994           0
      3452 MEMB     26       POPC     C1       CTL2    -0.800000E-01   12.0110           0
      3453 MEMB     26       POPC     HA       HAL2     0.900000E-01   1.00800           0
      3454 MEMB     26       POPC     HB       HAL2     0.900000E-01   1.00800           0
      3455 MEMB     26       POPC     C2       CTL1     0.170000       12.0110           0
      3456 MEMB     26       POPC     HS       HAL1     0.900000E-01   1.00800           0
      3457 MEMB     26       POPC     O21      OSL     -0.490000       15.9994           0
      3458 MEMB     26       POPC     C21      CL       0.900000       12.0110           0
      3459 MEMB     26       POPC     O22      OBL     -0.630000       15.9994           0
      3460 MEMB     26       POPC     C22      CTL2    -0.220000       12.0110           0
      3461 MEMB     26       POPC     H2R      HAL2     0.900000E-01   1.00800           0
      3462 MEMB     26       POPC     H2S      HAL2     0.900000E-01   1.00800           0
      3463 MEMB     26       POPC     C3       CTL2     0.800000E-01   12.0110           0
      3464 MEMB     26       POPC     HX       HAL2     0.900000E-01   1.00800           0
      3465 MEMB     26       POPC     HY       HAL2     0.900000E-01   1.00800           0
      3466 MEMB     26       POPC     O31      OSL     -0.490000       15.9994           0
      3467 MEMB     26       POPC     C31      CL       0.900000       12.0110           0
      3468 MEMB     26       POPC     O32      OBL     -0.630000       15.9994           0
      3469 MEMB     26       POPC     C32      CTL2    -0.220000       12.0110           0
      3470 MEMB     26       POPC     H2X      HAL2     0.900000E-01   1.00800           0
      3471 MEMB     26       POPC     H2Y      HAL2     0.900000E-01   1.00800           0
      3472 MEMB     26       POPC     C23      CTL2    -0.180000       12.0110           0
      3473 MEMB     26       POPC     H3R      HAL2     0.900000E-01   1.00800           0
      3474 MEMB     26       POPC     H3S      HAL2     0.900000E-01   1.00800           0
      3475 MEMB     26       POPC     C24      CTL2    -0.180000       12.0110           0
      3476 MEMB     26       POPC     H4R      HAL2     0.900000E-01   1.00800           0
      3477 MEMB     26       POPC     H4S      HAL2     0.900000E-01   1.00800           0
      3478 MEMB     26       POPC     C25      CTL2    -0.180000       12.0110           0
      3479 MEMB     26       POPC     H5R      HAL2     0.900000E-01   1.00800           0
      3480 MEMB     26       POPC     H5S      HAL2     0.900000E-01   1.00800           0
      3481 MEMB     26       POPC     C26      CTL2    -0.180000       12.0110           0
      3482 MEMB     26       POPC     H6R      HAL2     0.900000E-01   1.00800           0
      3483 MEMB     26       POPC     H6S      HAL2     0.900000E-01   1.00800           0
      3484 MEMB     26       POPC     C27      CTL2    -0.180000       12.0110           0
      3485 MEMB     26       POPC     H7R      HAL2     0.900000E-01   1.00800           0
      3486 MEMB     26       POPC     H7S      HAL2     0.900000E-01   1.00800           0
      3487 MEMB     26       POPC     C28      CTL2    -0.180000       12.0110           0
      3488 MEMB     26       POPC     H8R      HAL2     0.900000E-01   1.00800           0
      3489 MEMB     26       POPC     H8S      HAL2     0.900000E-01   1.00800           0
      3490 MEMB     26       POPC     C29      CEL1    -0.150000       12.0110           0
      3491 MEMB     26       POPC     H91      HEL1     0.150000       1.00800           0
      3492 MEMB     26       POPC     C210     CEL1    -0.150000       12.0110           0
      3493 MEMB     26       POPC     H101     HEL1     0.150000       1.00800           0
      3494 MEMB     26       POPC     C211     CTL2    -0.180000       12.0110           0
      3495 MEMB     26       POPC     H11R     HAL2     0.900000E-01   1.00800           0
      3496 MEMB     26       POPC     H11S     HAL2     0.900000E-01   1.00800           0
      3497 MEMB     26       POPC     C212     CTL2    -0.180000       12.0110           0
      3498 MEMB     26       POPC     H12R     HAL2     0.900000E-01   1.00800           0
      3499 MEMB     26       POPC     H12S     HAL2     0.900000E-01   1.00800           0
      3500 MEMB     26       POPC     C213     CTL2    -0.180000       12.0110           0
      3501 MEMB     26       POPC     H13R     HAL2     0.900000E-01   1.00800           0
      3502 MEMB     26       POPC     H13S     HAL2     0.900000E-01   1.00800           0
      3503 MEMB     26       POPC     C214     CTL2    -0.180000       12.0110           0
      3504 MEMB     26       POPC     H14R     HAL2     0.900000E-01   1.00800           0
      3505 MEMB     26       POPC     H14S     HAL2     0.900000E-01   1.00800           0
      3506 MEMB     26       POPC     C215     CTL2    -0.180000       12.0110           0
      3507 MEMB     26       POPC     H15R     HAL2     0.900000E-01   1.00800           0
      3508 MEMB     26       POPC     H15S     HAL2     0.900000E-01   1.00800           0
      3509 MEMB     26       POPC     C216     CTL2    -0.180000       12.0110           0
      3510 MEMB     26       POPC     H16R     HAL2     0.900000E-01   1.00800           0
      3511 MEMB     26       POPC     H16S     HAL2     0.900000E-01   1.00800           0
      3512 MEMB     26       POPC     C217     CTL2    -0.180000       12.0110           0
      3513 MEMB     26       POPC     H17R     HAL2     0.900000E-01   1.00800           0
      3514 MEMB     26       POPC     H17S     HAL2     0.900000E-01   1.00800           0
      3515 MEMB     26       POPC     C218     CTL3    -0.270000       12.0110           0
      3516 MEMB     26       POPC     H18R     HAL3     0.900000E-01   1.00800           0
      3517 MEMB     26       POPC     H18S     HAL3     0.900000E-01   1.00800           0
      3518 MEMB     26       POPC     H18T     HAL3     0.900000E-01   1.00800           0
      3519 MEMB     26       POPC     C33      CTL2    -0.180000       12.0110           0
      3520 MEMB     26       POPC     H3X      HAL2     0.900000E-01   1.00800           0
      3521 MEMB     26       POPC     H3Y      HAL2     0.900000E-01   1.00800           0
      3522 MEMB     26       POPC     C34      CTL2    -0.180000       12.0110           0
      3523 MEMB     26       POPC     H4X      HAL2     0.900000E-01   1.00800           0
      3524 MEMB     26       POPC     H4Y      HAL2     0.900000E-01   1.00800           0
      3525 MEMB     26       POPC     C35      CTL2    -0.180000       12.0110           0
      3526 MEMB     26       POPC     H5X      HAL2     0.900000E-01   1.00800           0
      3527 MEMB     26       POPC     H5Y      HAL2     0.900000E-01   1.00800           0
      3528 MEMB     26       POPC     C36      CTL2    -0.180000       12.0110           0
      3529 MEMB     26       POPC     H6X      HAL2     0.900000E-01   1.00800           0
      3530 MEMB     26       POPC     H6Y      HAL2     0.900000E-01   1.00800           0
      3531 MEMB     26       POPC     C37      CTL2    -0.180000       12.0110           0
      3532 MEMB     26       POPC     H7X      HAL2     0.900000E-01   1.00800           0
      3533 MEMB     26       POPC     H7Y      HAL2     0.900000E-01   1.00800           0
      3534 MEMB     26       POPC     C38      CTL2    -0.180000       12.0110           0
      3535 MEMB     26       POPC     H8X      HAL2     0.900000E-01   1.00800           0
      3536 MEMB     26       POPC     H8Y      HAL2     0.900000E-01   1.00800           0
      3537 MEMB     26       POPC     C39      CTL2    -0.180000       12.0110           0
      3538 MEMB     26       POPC     H9X      HAL2     0.900000E-01   1.00800           0
      3539 MEMB     26       POPC     H9Y      HAL2     0.900000E-01   1.00800           0
      3540 MEMB     26       POPC     C310     CTL2    -0.180000       12.0110           0
      3541 MEMB     26       POPC     H10X     HAL2     0.900000E-01   1.00800           0
      3542 MEMB     26       POPC     H10Y     HAL2     0.900000E-01   1.00800           0
      3543 MEMB     26       POPC     C311     CTL2    -0.180000       12.0110           0
      3544 MEMB     26       POPC     H11X     HAL2     0.900000E-01   1.00800           0
      3545 MEMB     26       POPC     H11Y     HAL2     0.900000E-01   1.00800           0
      3546 MEMB     26       POPC     C312     CTL2    -0.180000       12.0110           0
      3547 MEMB     26       POPC     H12X     HAL2     0.900000E-01   1.00800           0
      3548 MEMB     26       POPC     H12Y     HAL2     0.900000E-01   1.00800           0
      3549 MEMB     26       POPC     C313     CTL2    -0.180000       12.0110           0
      3550 MEMB     26       POPC     H13X     HAL2     0.900000E-01   1.00800           0
      3551 MEMB     26       POPC     H13Y     HAL2     0.900000E-01   1.00800           0
      3552 MEMB     26       POPC     C314     CTL2    -0.180000       12.0110           0
      3553 MEMB     26       POPC     H14X     HAL2     0.900000E-01   1.00800           0
      3554 MEMB     26       POPC     H14Y     HAL2     0.900000E-01   1.00800           0
      3555 MEMB     26       POPC     C315     CTL2    -0.180000       12.0110           0
      3556 MEMB     26       POPC     H15X     HAL2     0.900000E-01   1.00800           0
      3557 MEMB     26       POPC     H15Y     HAL2     0.900000E-01   1.00800           0
      3558 MEMB     26       POPC     C316     CTL3    -0.270000       12.0110           0
      3559 MEMB     26       POPC     H16X     HAL3     0.900000E-01   1.00800           0
      3560 MEMB     26       POPC     H16Y     HAL3     0.900000E-01   1.00800           0
      3561 MEMB     26       POPC     H16Z     HAL3     0.900000E-01   1.00800           0
      3562 MEMB     27       POPC     N        NTL     -0.600000       14.0070           0
      3563 MEMB     27       POPC     C12      CTL2    -0.100000       12.0110           0
      3564 MEMB     27       POPC     H12A     HL       0.250000       1.00800           0
      3565 MEMB     27       POPC     H12B     HL       0.250000       1.00800           0
      3566 MEMB     27       POPC     C13      CTL5    -0.350000       12.0110           0
      3567 MEMB     27       POPC     H13A     HL       0.250000       1.00800           0
      3568 MEMB     27       POPC     H13B     HL       0.250000       1.00800           0
      3569 MEMB     27       POPC     H13C     HL       0.250000       1.00800           0
      3570 MEMB     27       POPC     C14      CTL5    -0.350000       12.0110           0
      3571 MEMB     27       POPC     H14A     HL       0.250000       1.00800           0
      3572 MEMB     27       POPC     H14B     HL       0.250000       1.00800           0
      3573 MEMB     27       POPC     H14C     HL       0.250000       1.00800           0
      3574 MEMB     27       POPC     C15      CTL5    -0.350000       12.0110           0
      3575 MEMB     27       POPC     H15A     HL       0.250000       1.00800           0
      3576 MEMB     27       POPC     H15B     HL       0.250000       1.00800           0
      3577 MEMB     27       POPC     H15C     HL       0.250000       1.00800           0
      3578 MEMB     27       POPC     C11      CTL2    -0.800000E-01   12.0110           0
      3579 MEMB     27       POPC     H11A     HAL2     0.900000E-01   1.00800           0
      3580 MEMB     27       POPC     H11B     HAL2     0.900000E-01   1.00800           0
      3581 MEMB     27       POPC     P        PL       1.500000       30.9740           0
      3582 MEMB     27       POPC     O13      O2L     -0.780000       15.9994           0
      3583 MEMB     27       POPC     O14      O2L     -0.780000       15.9994           0
      3584 MEMB     27       POPC     O12      OSLP    -0.570000       15.9994           0
      3585 MEMB     27       POPC     O11      OSLP    -0.570000       15.9994           0
      3586 MEMB     27       POPC     C1       CTL2    -0.800000E-01   12.0110           0
      3587 MEMB     27       POPC     HA       HAL2     0.900000E-01   1.00800           0
      3588 MEMB     27       POPC     HB       HAL2     0.900000E-01   1.00800           0
      3589 MEMB     27       POPC     C2       CTL1     0.170000       12.0110           0
      3590 MEMB     27       POPC     HS       HAL1     0.900000E-01   1.00800           0
      3591 MEMB     27       POPC     O21      OSL     -0.490000       15.9994           0
      3592 MEMB     27       POPC     C21      CL       0.900000       12.0110           0
      3593 MEMB     27       POPC     O22      OBL     -0.630000       15.9994           0
      3594 MEMB     27       POPC     C22      CTL2    -0.220000       12.0110           0
      3595 MEMB     27       POPC     H2R      HAL2     0.900000E-01   1.00800           0
      3596 MEMB     27       POPC     H2S      HAL2     0.900000E-01   1.00800           0
      3597 MEMB     27       POPC     C3       CTL2     0.800000E-01   12.0110           0
      3598 MEMB     27       POPC     HX       HAL2     0.900000E-01   1.00800           0
      3599 MEMB     27       POPC     HY       HAL2     0.900000E-01   1.00800           0
      3600 MEMB     27       POPC     O31      OSL     -0.490000       15.9994           0
      3601 MEMB     27       POPC     C31      CL       0.900000       12.0110           0
      3602 MEMB     27       POPC     O32      OBL     -0.630000       15.9994           0
      3603 MEMB     27       POPC     C32      CTL2    -0.220000       12.0110           0
      3604 MEMB     27       POPC     H2X      HAL2     0.900000E-01   1.00800           0
      3605 MEMB     27       POPC     H2Y      HAL2     0.900000E-01   1.00800           0
      3606 MEMB     27       POPC     C23      CTL2    -0.180000       12.0110           0
      3607 MEMB     27       POPC     H3R      HAL2     0.900000E-01   1.00800           0
      3608 MEMB     27       POPC     H3S      HAL2     0.900000E-01   1.00800           0
      3609 MEMB     27       POPC     C24      CTL2    -0.180000       12.0110           0
      3610 MEMB     27       POPC     H4R      HAL2     0.900000E-01   1.00800           0
      3611 MEMB     27       POPC     H4S      HAL2     0.900000E-01   1.00800           0
      3612 MEMB     27       POPC     C25      CTL2    -0.180000       12.0110           0
      3613 MEMB     27       POPC     H5R      HAL2     0.900000E-01   1.00800           0
      3614 MEMB     27       POPC     H5S      HAL2     0.900000E-01   1.00800           0
      3615 MEMB     27       POPC     C26      CTL2    -0.180000       12.0110           0
      3616 MEMB     27       POPC     H6R      HAL2     0.900000E-01   1.00800           0
      3617 MEMB     27       POPC     H6S      HAL2     0.900000E-01   1.00800           0
      3618 MEMB     27       POPC     C27      CTL2    -0.180000       12.0110           0
      3619 MEMB     27       POPC     H7R      HAL2     0.900000E-01   1.00800           0
      3620 MEMB     27       POPC     H7S      HAL2     0.900000E-01   1.00800           0
      3621 MEMB     27       POPC     C28      CTL2    -0.180000       12.0110           0
      3622 MEMB     27       POPC     H8R      HAL2     0.900000E-01   1.00800           0
      3623 MEMB     27       POPC     H8S      HAL2     0.900000E-01   1.00800           0
      3624 MEMB     27       POPC     C29      CEL1    -0.150000       12.0110           0
      3625 MEMB     27       POPC     H91      HEL1     0.150000       1.00800           0
      3626 MEMB     27       POPC     C210     CEL1    -0.150000       12.0110           0
      3627 MEMB     27       POPC     H101     HEL1     0.150000       1.00800           0
      3628 MEMB     27       POPC     C211     CTL2    -0.180000       12.0110           0
      3629 MEMB     27       POPC     H11R     HAL2     0.900000E-01   1.00800           0
      3630 MEMB     27       POPC     H11S     HAL2     0.900000E-01   1.00800           0
      3631 MEMB     27       POPC     C212     CTL2    -0.180000       12.0110           0
      3632 MEMB     27       POPC     H12R     HAL2     0.900000E-01   1.00800           0
      3633 MEMB     27       POPC     H12S     HAL2     0.900000E-01   1.00800           0
      3634 MEMB     27       POPC     C213     CTL2    -0.180000       12.0110           0
      3635 MEMB     27       POPC     H13R     HAL2     0.900000E-01   1.00800           0
      3636 MEMB     27       POPC     H13S     HAL2     0.900000E-01   1.00800           0
      3637 MEMB     27       POPC     C214     CTL2    -0.180000       12.0110           0
      3638 MEMB     27       POPC     H14R     HAL2     0.900000E-01   1.00800           0
      3639 MEMB     27       POPC     H14S     HAL2     0.900000E-01   1.00800           0
      3640 MEMB     27       POPC     C215     CTL2    -0.180000       12.0110           0
      3641 MEMB     27       POPC     H15R     HAL2     0.900000E-01   1.00800           0
      3642 MEMB     27       POPC     H15S     HAL2     0.900000E-01   1.00800           0
      3643 MEMB     27       POPC     C216     CTL2    -0.180000       12.0110           0
      3644 MEMB     27       POPC     H16R     HAL2     0.900000E-01   1.00800           0
      3645 MEMB     27       POPC     H16S     HAL2     0.900000E-01   1.00800           0
      3646 MEMB     27       POPC     C217     CTL2    -0.180000       12.0110           0
      3647 MEMB     27       POPC     H17R     HAL2     0.900000E-01   1.00800           0
      3648 MEMB     27       POPC     H17S     HAL2     0.900000E-01   1.00800           0
      3649 MEMB     27       POPC     C218     CTL3    -0.270000       12.0110           0
      3650 MEMB     27       POPC     H18R     HAL3     0.900000E-01   1.00800           0
      3651 MEMB     27       POPC     H18S     HAL3     0.900000E-01   1.00800           0
      3652 MEMB     27       POPC     H18T     HAL3     0.900000E-01   1.00800           0
      3653 MEMB     27       POPC     C33      CTL2    -0.180000       12.0110           0
      3654 MEMB     27       POPC     H3X      HAL2     0.900000E-01   1.00800           0
      3655 MEMB     27       POPC     H3Y      HAL2     0.900000E-01   1.00800           0
      3656 MEMB     27       POPC     C34      CTL2    -0.180000       12.0110           0
      3657 MEMB     27       POPC     H4X      HAL2     0.900000E-01   1.00800           0
      3658 MEMB     27       POPC     H4Y      HAL2     0.900000E-01   1.00800           0
      3659 MEMB     27       POPC     C35      CTL2    -0.180000       12.0110           0
      3660 MEMB     27       POPC     H5X      HAL2     0.900000E-01   1.00800           0
      3661 MEMB     27       POPC     H5Y      HAL2     0.900000E-01   1.00800           0
      3662 MEMB     27       POPC     C36      CTL2    -0.180000       12.0110           0
      3663 MEMB     27       POPC     H6X      HAL2     0.900000E-01   1.00800           0
      3664 MEMB     27       POPC     H6Y      HAL2     0.900000E-01   1.00800           0
      3665 MEMB     27       POPC     C37      CTL2    -0.180000       12.0110           0
      3666 MEMB     27       POPC     H7X      HAL2     0.900000E-01   1.00800           0
      3667 MEMB     27       POPC     H7Y      HAL2     0.900000E-01   1.00800           0
      3668 MEMB     27       POPC     C38      CTL2    -0.180000       12.0110           0
      3669 MEMB     27       POPC     H8X      HAL2     0.900000E-01   1.00800           0
      3670 MEMB     27       POPC     H8Y      HAL2     0.900000E-01   1.00800           0
      3671 MEMB     27       POPC     C39      CTL2    -0.180000       12.0110           0
      3672 MEMB     27       POPC     H9X      HAL2     0.900000E-01   1.00800           0
      3673 MEMB     27       POPC     H9Y      HAL2     0.900000E-01   1.00800           0
      3674 MEMB     27       POPC     C310     CTL2    -0.180000       12.0110           0
      3675 MEMB     27       POPC     H10X     HAL2     0.900000E-01   1.00800           0
      3676 MEMB     27       POPC     H10Y     HAL2     0.900000E-01   1.00800           0
      3677 MEMB     27       POPC     C311     CTL2    -0.180000       12.0110           0
      3678 MEMB     27       POPC     H11X     HAL2     0.900000E-01   1.00800           0
      3679 MEMB     27       POPC     H11Y     HAL2     0.900000E-01   1.00800           0
      3680 MEMB     27       POPC     C312     CTL2    -0.180000       12.0110           0
      3681 MEMB     27       POPC     H12X     HAL2     0.900000E-01   1.00800           0
      3682 MEMB     27       POPC     H12Y     HAL2     0.900000E-01   1.00800           0
      3683 MEMB     27       POPC     C313     CTL2    -0.180000       12.0110           0
      3684 MEMB     27       POPC     H13X     HAL2     0.900000E-01   1.00800           0
      3685 MEMB     27       POPC     H13Y     HAL2     0.900000E-01   1.00800           0
      3686 MEMB     27       POPC     C314     CTL2    -0.180000       12.0110           0
      3687 MEMB     27       POPC     H14X     HAL2     0.900000E-01   1.00800           0
      3688 MEMB     27       POPC     H14Y     HAL2     0.900000E-01   1.00800           0
      3689 MEMB     27       POPC     C315     CTL2    -0.180000       12.0110           0
      3690 MEMB     27       POPC     H15X     HAL2     0.900000E-01   1.00800           0
      3691 MEMB     27       POPC     H15Y     HAL2     0.900000E-01   1.00800           0
      3692 MEMB     27       POPC     C316     CTL3    -0.270000       12.0110           0
      3693 MEMB     27       POPC     H16X     HAL3     0.900000E-01   1.00800           0
      3694 MEMB     27       POPC     H16Y     HAL3     0.900000E-01   1.00800           0
      3695 MEMB     27       POPC     H16Z     HAL3     0.900000E-01   1.00800           0
      3696 MEMB     28       POPC     N        NTL     -0.600000       14.0070           0
      3697 MEMB     28       POPC     C12      CTL2    -0.100000       12.0110           0
      3698 MEMB     28       POPC     H12A     HL       0.250000       1.00800           0
      3699 MEMB     28       POPC     H12B     HL       0.250000       1.00800           0
      3700 MEMB     28       POPC     C13      CTL5    -0.350000       12.0110           0
      3701 MEMB     28       POPC     H13A     HL       0.250000       1.00800           0
      3702 MEMB     28       POPC     H13B     HL       0.250000       1.00800           0
      3703 MEMB     28       POPC     H13C     HL       0.250000       1.00800           0
      3704 MEMB     28       POPC     C14      CTL5    -0.350000       12.0110           0
      3705 MEMB     28       POPC     H14A     HL       0.250000       1.00800           0
      3706 MEMB     28       POPC     H14B     HL       0.250000       1.00800           0
      3707 MEMB     28       POPC     H14C     HL       0.250000       1.00800           0
      3708 MEMB     28       POPC     C15      CTL5    -0.350000       12.0110           0
      3709 MEMB     28       POPC     H15A     HL       0.250000       1.00800           0
      3710 MEMB     28       POPC     H15B     HL       0.250000       1.00800           0
      3711 MEMB     28       POPC     H15C     HL       0.250000       1.00800           0
      3712 MEMB     28       POPC     C11      CTL2    -0.800000E-01   12.0110           0
      3713 MEMB     28       POPC     H11A     HAL2     0.900000E-01   1.00800           0
      3714 MEMB     28       POPC     H11B     HAL2     0.900000E-01   1.00800           0
      3715 MEMB     28       POPC     P        PL       1.500000       30.9740           0
      3716 MEMB     28       POPC     O13      O2L     -0.780000       15.9994           0
      3717 MEMB     28       POPC     O14      O2L     -0.780000       15.9994           0
      3718 MEMB     28       POPC     O12      OSLP    -0.570000       15.9994           0
      3719 MEMB     28       POPC     O11      OSLP    -0.570000       15.9994           0
      3720 MEMB     28       POPC     C1       CTL2    -0.800000E-01   12.0110           0
      3721 MEMB     28       POPC     HA       HAL2     0.900000E-01   1.00800           0
      3722 MEMB     28       POPC     HB       HAL2     0.900000E-01   1.00800           0
      3723 MEMB     28       POPC     C2       CTL1     0.170000       12.0110           0
      3724 MEMB     28       POPC     HS       HAL1     0.900000E-01   1.00800           0
      3725 MEMB     28       POPC     O21      OSL     -0.490000       15.9994           0
      3726 MEMB     28       POPC     C21      CL       0.900000       12.0110           0
      3727 MEMB     28       POPC     O22      OBL     -0.630000       15.9994           0
      3728 MEMB     28       POPC     C22      CTL2    -0.220000       12.0110           0
      3729 MEMB     28       POPC     H2R      HAL2     0.900000E-01   1.00800           0
      3730 MEMB     28       POPC     H2S      HAL2     0.900000E-01   1.00800           0
      3731 MEMB     28       POPC     C3       CTL2     0.800000E-01   12.0110           0
      3732 MEMB     28       POPC     HX       HAL2     0.900000E-01   1.00800           0
      3733 MEMB     28       POPC     HY       HAL2     0.900000E-01   1.00800           0
      3734 MEMB     28       POPC     O31      OSL     -0.490000       15.9994           0
      3735 MEMB     28       POPC     C31      CL       0.900000       12.0110           0
      3736 MEMB     28       POPC     O32      OBL     -0.630000       15.9994           0
      3737 MEMB     28       POPC     C32      CTL2    -0.220000       12.0110           0
      3738 MEMB     28       POPC     H2X      HAL2     0.900000E-01   1.00800           0
      3739 MEMB     28       POPC     H2Y      HAL2     0.900000E-01   1.00800           0
      3740 MEMB     28       POPC     C23      CTL2    -0.180000       12.0110           0
      3741 MEMB     28       POPC     H3R      HAL2     0.900000E-01   1.00800           0
      3742 MEMB     28       POPC     H3S      HAL2     0.900000E-01   1.00800           0
      3743 MEMB     28       POPC     C24      CTL2    -0.180000       12.0110           0
      3744 MEMB     28       POPC     H4R      HAL2     0.900000E-01   1.00800           0
      3745 MEMB     28       POPC     H4S      HAL2     0.900000E-01   1.00800           0
      3746 MEMB     28       POPC     C25      CTL2    -0.180000       12.0110           0
      3747 MEMB     28       POPC     H5R      HAL2     0.900000E-01   1.00800           0
      3748 MEMB     28       POPC     H5S      HAL2     0.900000E-01   1.00800           0
      3749 MEMB     28       POPC     C26      CTL2    -0.180000       12.0110           0
      3750 MEMB     28       POPC     H6R      HAL2     0.900000E-01   1.00800           0
      3751 MEMB     28       POPC     H6S      HAL2     0.900000E-01   1.00800           0
      3752 MEMB     28       POPC     C27      CTL2    -0.180000       12.0110           0
      3753 MEMB     28       POPC     H7R      HAL2     0.900000E-01   1.00800           0
      3754 MEMB     28       POPC     H7S      HAL2     0.900000E-01   1.00800           0
      3755 MEMB     28       POPC     C28      CTL2    -0.180000       12.0110           0
      3756 MEMB     28       POPC     H8R      HAL2     0.900000E-01   1.00800           0
      3757 MEMB     28       POPC     H8S      HAL2     0.900000E-01   1.00800           0
      3758 MEMB     28       POPC     C29      CEL1    -0.150000       12.0110           0
      3759 MEMB     28       POPC     H91      HEL1     0.150000       1.00800           0
      3760 MEMB     28       POPC     C210     CEL1    -0.150000       12.0110           0
      3761 MEMB     28       POPC     H101     HEL1     0.150000       1.00800           0
      3762 MEMB     28       POPC     C211     CTL2    -0.180000       12.0110           0
      3763 MEMB     28       POPC     H11R     HAL2     0.900000E-01   1.00800           0
      3764 MEMB     28       POPC     H11S     HAL2     0.900000E-01   1.00800           0
      3765 MEMB     28       POPC     C212     CTL2    -0.180000       12.0110           0
      3766 MEMB     28       POPC     H12R     HAL2     0.900000E-01   1.00800           0
      3767 MEMB     28       POPC     H12S     HAL2     0.900000E-01   1.00800           0
      3768 MEMB     28       POPC     C213     CTL2    -0.180000       12.0110           0
      3769 MEMB     28       POPC     H13R     HAL2     0.900000E-01   1.00800           0
      3770 MEMB     28       POPC     H13S     HAL2     0.900000E-01   1.00800           0
      3771 MEMB     28       POPC     C214     CTL2    -0.180000       12.0110           0
      3772 MEMB     28       POPC     H14R     HAL2     0.900000E-01   1.00800           0
      3773 MEMB     28       POPC     H14S     HAL2     0.900000E-01   1.00800           0
      3774 MEMB     28       POPC     C215     CTL2    -0.180000       12.0110           0
      3775 MEMB     28       POPC     H15R     HAL2     0.900000E-01   1.00800           0
      3776 MEMB     28       POPC     H15S     HAL2     0.900000E-01   1.00800           0
      3777 MEMB     28       POPC     C216     CTL2    -0.180000       12.0110           0
      3778 MEMB     28       POPC     H16R     HAL2     0.900000E-01   1.00800           0
      3779 MEMB     28       POPC     H16S     HAL2     0.900000E-01   1.00800           0
      3780 MEMB     28       POPC     C217     CTL2    -0.180000       12.0110           0
      3781 MEMB     28       POPC     H17R     HAL2     0.900000E-01   1.00800           0
      3782 MEMB     28       POPC     H17S     HAL2     0.900000E-01   1.00800           0
      3783 MEMB     28       POPC     C218     CTL3    -0.270000       12.0110           0
      3784 MEMB     28       POPC     H18R     HAL3     0.900000E-01   1.00800           0
      3785 MEMB     28       POPC     H18S     HAL3     0.900000E-01   1.00800           0
      3786 MEMB     28       POPC     H18T     HAL3     0.900000E-01   1.00800           0
      3787 MEMB     28       POPC     C33      CTL2    -0.180000       12.0110           0
      3788 MEMB     28       POPC     H3X      HAL2     0.900000E-01   1.00800           0
      3789 MEMB     28       POPC     H3Y      HAL2     0.900000E-01   1.00800           0
      3790 MEMB     28       POPC     C34      CTL2    -0.180000       12.0110           0
      3791 MEMB     28       POPC     H4X      HAL2     0.900000E-01   1.00800           0
      3792 MEMB     28       POPC     H4Y      HAL2     0.900000E-01   1.00800           0
      3793 MEMB     28       POPC     C35      CTL2    -0.180000       12.0110           0
      3794 MEMB     28       POPC     H5X      HAL2     0.900000E-01   1.00800           0
      3795 MEMB     28       POPC     H5Y      HAL2     0.900000E-01   1.00800           0
      3796 MEMB     28       POPC     C36      CTL2    -0.180000       12.0110           0
      3797 MEMB     28       POPC     H6X      HAL2     0.900000E-01   1.00800           0
      3798 MEMB     28       POPC     H6Y      HAL2     0.900000E-01   1.00800           0
      3799 MEMB     28       POPC     C37      CTL2    -0.180000       12.0110           0
      3800 MEMB     28       POPC     H7X      HAL2     0.900000E-01   1.00800           0
      3801 MEMB     28       POPC     H7Y      HAL2     0.900000E-01   1.00800           0
      3802 MEMB     28       POPC     C38      CTL2    -0.180000       12.0110           0
      3803 MEMB     28       POPC     H8X      HAL2     0.900000E-01   1.00800           0
      3804 MEMB     28       POPC     H8Y      HAL2     0.900000E-01   1.00800           0
      3805 MEMB     28       POPC     C39      CTL2    -0.180000       12.0110           0
      3806 MEMB     28       POPC     H9X      HAL2     0.900000E-01   1.00800           0
      3807 MEMB     28       POPC     H9Y      HAL2     0.900000E-01   1.00800           0
      3808 MEMB     28       POPC     C310     CTL2    -0.180000       12.0110           0
      3809 MEMB     28       POPC     H10X     HAL2     0.900000E-01   1.00800           0
      3810 MEMB     28       POPC     H10Y     HAL2     0.900000E-01   1.00800           0
      3811 MEMB     28       POPC     C311     CTL2    -0.180000       12.0110           0
      3812 MEMB     28       POPC     H11X     HAL2     0.900000E-01   1.00800           0
      3813 MEMB     28       POPC     H11Y     HAL2     0.900000E-01   1.00800           0
      3814 MEMB     28       POPC     C312     CTL2    -0.180000       12.0110           0
      3815 MEMB     28       POPC     H12X     HAL2     0.900000E-01   1.00800           0
      3816 MEMB     28       POPC     H12Y     HAL2     0.900000E-01   1.00800           0
      3817 MEMB     28       POPC     C313     CTL2    -0.180000       12.0110           0
      3818 MEMB     28       POPC     H13X     HAL2     0.900000E-01   1.00800           0
      3819 MEMB     28       POPC     H13Y     HAL2     0.900000E-01   1.00800           0
      3820 MEMB     28       POPC     C314     CTL2    -0.180000       12.0110           0
      3821 MEMB     28       POPC     H14X     HAL2     0.900000E-01   1.00800           0
      3822 MEMB     28       POPC     H14Y     HAL2     0.900000E-01   1.00800           0
      3823 MEMB     28       POPC     C315     CTL2    -0.180000       12.0110           0
      3824 MEMB     28       POPC     H15X     HAL2     0.900000E-01   1.00800           0
      3825 MEMB     28       POPC     H15Y     HAL2     0.900000E-01   1.00800           0
      3826 MEMB     28       POPC     C316     CTL3    -0.270000       12.0110           0
      3827 MEMB     28       POPC     H16X     HAL3     0.900000E-01   1.00800           0
      3828 MEMB     28       POPC     H16Y     HAL3     0.900000E-01   1.00800           0
      3829 MEMB     28       POPC     H16Z     HAL3     0.900000E-01   1.00800           0
      3830 MEMB     29       POPC     N        NTL     -0.600000       14.0070           0
      3831 MEMB     29       POPC     C12      CTL2    -0.100000       12.0110           0
      3832 MEMB     29       POPC     H12A     HL       0.250000       1.00800           0
      3833 MEMB     29       POPC     H12B     HL       0.250000       1.00800           0
      3834 MEMB     29       POPC     C13      CTL5    -0.350000       12.0110           0
      3835 MEMB     29       POPC     H13A     HL       0.250000       1.00800           0
      3836 MEMB     29       POPC     H13B     HL       0.250000       1.00800           0
      3837 MEMB     29       POPC     H13C     HL       0.250000       1.00800           0
      3838 MEMB     29       POPC     C14      CTL5    -0.350000       12.0110           0
      3839 MEMB     29       POPC     H14A     HL       0.250000       1.00800           0
      3840 MEMB     29       POPC     H14B     HL       0.250000       1.00800           0
      3841 MEMB     29       POPC     H14C     HL       0.250000       1.00800           0
      3842 MEMB     29       POPC     C15      CTL5    -0.350000       12.0110           0
      3843 MEMB     29       POPC     H15A     HL       0.250000       1.00800           0
      3844 MEMB     29       POPC     H15B     HL       0.250000       1.00800           0
      3845 MEMB     29       POPC     H15C     HL       0.250000       1.00800           0
      3846 MEMB     29       POPC     C11      CTL2    -0.800000E-01   12.0110           0
      3847 MEMB     29       POPC     H11A     HAL2     0.900000E-01   1.00800           0
      3848 MEMB     29       POPC     H11B     HAL2     0.900000E-01   1.00800           0
      3849 MEMB     29       POPC     P        PL       1.500000       30.9740           0
      3850 MEMB     29       POPC     O13      O2L     -0.780000       15.9994           0
      3851 MEMB     29       POPC     O14      O2L     -0.780000       15.9994           0
      3852 MEMB     29       POPC     O12      OSLP    -0.570000       15.9994           0
      3853 MEMB     29       POPC     O11      OSLP    -0.570000       15.9994           0
      3854 MEMB     29       POPC     C1       CTL2    -0.800000E-01   12.0110           0
      3855 MEMB     29       POPC     HA       HAL2     0.900000E-01   1.00800           0
      3856 MEMB     29       POPC     HB       HAL2     0.900000E-01   1.00800           0
      3857 MEMB     29       POPC     C2       CTL1     0.170000       12.0110           0
      3858 MEMB     29       POPC     HS       HAL1     0.900000E-01   1.00800           0
      3859 MEMB     29       POPC     O21      OSL     -0.490000       15.9994           0
      3860 MEMB     29       POPC     C21      CL       0.900000       12.0110           0
      3861 MEMB     29       POPC     O22      OBL     -0.630000       15.9994           0
      3862 MEMB     29       POPC     C22      CTL2    -0.220000       12.0110           0
      3863 MEMB     29       POPC     H2R      HAL2     0.900000E-01   1.00800           0
      3864 MEMB     29       POPC     H2S      HAL2     0.900000E-01   1.00800           0
      3865 MEMB     29       POPC     C3       CTL2     0.800000E-01   12.0110           0
      3866 MEMB     29       POPC     HX       HAL2     0.900000E-01   1.00800           0
      3867 MEMB     29       POPC     HY       HAL2     0.900000E-01   1.00800           0
      3868 MEMB     29       POPC     O31      OSL     -0.490000       15.9994           0
      3869 MEMB     29       POPC     C31      CL       0.900000       12.0110           0
      3870 MEMB     29       POPC     O32      OBL     -0.630000       15.9994           0
      3871 MEMB     29       POPC     C32      CTL2    -0.220000       12.0110           0
      3872 MEMB     29       POPC     H2X      HAL2     0.900000E-01   1.00800           0
      3873 MEMB     29       POPC     H2Y      HAL2     0.900000E-01   1.00800           0
      3874 MEMB     29       POPC     C23      CTL2    -0.180000       12.0110           0
      3875 MEMB     29       POPC     H3R      HAL2     0.900000E-01   1.00800           0
      3876 MEMB     29       POPC     H3S      HAL2     0.900000E-01   1.00800           0
      3877 MEMB     29       POPC     C24      CTL2    -0.180000       12.0110           0
      3878 MEMB     29       POPC     H4R      HAL2     0.900000E-01   1.00800           0
      3879 MEMB     29       POPC     H4S      HAL2     0.900000E-01   1.00800           0
      3880 MEMB     29       POPC     C25      CTL2    -0.180000       12.0110           0
      3881 MEMB     29       POPC     H5R      HAL2     0.900000E-01   1.00800           0
      3882 MEMB     29       POPC     H5S      HAL2     0.900000E-01   1.00800           0
      3883 MEMB     29       POPC     C26      CTL2    -0.180000       12.0110           0
      3884 MEMB     29       POPC     H6R      HAL2     0.900000E-01   1.00800           0
      3885 MEMB     29       POPC     H6S      HAL2     0.900000E-01   1.00800           0
      3886 MEMB     29       POPC     C27      CTL2    -0.180000       12.0110           0
      3887 MEMB     29       POPC     H7R      HAL2     0.900000E-01   1.00800           0
      3888 MEMB     29       POPC     H7S      HAL2     0.900000E-01   1.00800           0
      3889 MEMB     29       POPC     C28      CTL2    -0.180000       12.0110           0
      3890 MEMB     29       POPC     H8R      HAL2     0.900000E-01   1.00800           0
      3891 MEMB     29       POPC     H8S      HAL2     0.900000E-01   1.00800           0
      3892 MEMB     29       POPC     C29      CEL1    -0.150000       12.0110           0
      3893 MEMB     29       POPC     H91      HEL1     0.150000       1.00800           0
      3894 MEMB     29       POPC     C210     CEL1    -0.150000       12.0110           0
      3895 MEMB     29       POPC     H101     HEL1     0.150000       1.00800           0
      3896 MEMB     29       POPC     C211     CTL2    -0.180000       12.0110           0
      3897 MEMB     29       POPC     H11R     HAL2     0.900000E-01   1.00800           0
      3898 MEMB     29       POPC     H11S     HAL2     0.900000E-01   1.00800           0
      3899 MEMB     29       POPC     C212     CTL2    -0.180000       12.0110           0
      3900 MEMB     29       POPC     H12R     HAL2     0.900000E-01   1.00800           0
      3901 MEMB     29       POPC     H12S     HAL2     0.900000E-01   1.00800           0
      3902 MEMB     29       POPC     C213     CTL2    -0.180000       12.0110           0
      3903 MEMB     29       POPC     H13R     HAL2     0.900000E-01   1.00800           0
      3904 MEMB     29       POPC     H13S     HAL2     0.900000E-01   1.00800           0
      3905 MEMB     29       POPC     C214     CTL2    -0.180000       12.0110           0
      3906 MEMB     29       POPC     H14R     HAL2     0.900000E-01   1.00800           0
      3907 MEMB     29       POPC     H14S     HAL2     0.900000E-01   1.00800           0
      3908 MEMB     29       POPC     C215     CTL2    -0.180000       12.0110           0
      3909 MEMB     29       POPC     H15R     HAL2     0.900000E-01   1.00800           0
      3910 MEMB     29       POPC     H15S     HAL2     0.900000E-01   1.00800           0
      3911 MEMB     29       POPC     C216     CTL2    -0.180000       12.0110           0
      3912 MEMB     29       POPC     H16R     HAL2     0.900000E-01   1.00800           0
      3913 MEMB     29       POPC     H16S     HAL2     0.900000E-01   1.00800           0
      3914 MEMB     29       POPC     C217     CTL2    -0.180000       12.0110           0
      3915 MEMB     29       POPC     H17R     HAL2     0.900000E-01   1.00800           0
      3916 MEMB     29       POPC     H17S     HAL2     0.900000E-01   1.00800           0
      3917 MEMB     29       POPC     C218     CTL3    -0.270000       12.0110           0
      3918 MEMB     29       POPC     H18R     HAL3     0.900000E-01   1.00800           0
      3919 MEMB     29       POPC     H18S     HAL3     0.900000E-01   1.00800           0
      3920 MEMB     29       POPC     H18T     HAL3     0.900000E-01   1.00800           0
      3921 MEMB     29       POPC     C33      CTL2    -0.180000       12.0110           0
      3922 MEMB     29       POPC     H3X      HAL2     0.900000E-01   1.00800           0
      3923 MEMB     29       POPC     H3Y      HAL2     0.900000E-01   1.00800           0
      3924 MEMB     29       POPC     C34      CTL2    -0.180000       12.0110           0
      3925 MEMB     29       POPC     H4X      HAL2     0.900000E-01   1.00800           0
      3926 MEMB     29       POPC     H4Y      HAL2     0.900000E-01   1.00800           0
      3927 MEMB     29       POPC     C35      CTL2    -0.180000       12.0110           0
      3928 MEMB     29       POPC     H5X      HAL2     0.900000E-01   1.00800           0
      3929 MEMB     29       POPC     H5Y      HAL2     0.900000E-01   1.00800           0
      3930 MEMB     29       POPC     C36      CTL2    -0.180000       12.0110           0
      3931 MEMB     29       POPC     H6X      HAL2     0.900000E-01   1.00800           0
      3932 MEMB     29       POPC     H6Y      HAL2     0.900000E-01   1.00800           0
      3933 MEMB     29       POPC     C37      CTL2    -0.180000       12.0110           0
      3934 MEMB     29       POPC     H7X      HAL2     0.900000E-01   1.00800           0
      3935 MEMB     29       POPC     H7Y      HAL2     0.900000E-01   1.00800           0
      3936 MEMB     29       POPC     C38      CTL2    -0.180000       12.0110           0
      3937 MEMB     29       POPC     H8X      HAL2     0.900000E-01   1.00800           0
      3938 MEMB     29       POPC     H8Y      HAL2     0.900000E-01   1.00800           0
      3939 MEMB     29       POPC     C39      CTL2    -0.180000       12.0110           0
      3940 MEMB     29       POPC     H9X      HAL2     0.900000E-01   1.00800           0
      3941 MEMB     29       POPC     H9Y      HAL2     0.900000E-01   1.00800           0
      3942 MEMB     29       POPC     C310     CTL2    -0.180000       12.0110           0
      3943 MEMB     29       POPC     H10X     HAL2     0.900000E-01   1.00800           0
      3944 MEMB     29       POPC     H10Y     HAL2     0.900000E-01   1.00800           0
      3945 MEMB     29       POPC     C311     CTL2    -0.180000       12.0110           0
      3946 MEMB     29       POPC     H11X     HAL2     0.900000E-01   1.00800           0
      3947 MEMB     29       POPC     H11Y     HAL2     0.900000E-01   1.00800           0
      3948 MEMB     29       POPC     C312     CTL2    -0.180000       12.0110           0
      3949 MEMB     29       POPC     H12X     HAL2     0.900000E-01   1.00800           0
      3950 MEMB     29       POPC     H12Y     HAL2     0.900000E-01   1.00800           0
      3951 MEMB     29       POPC     C313     CTL2    -0.180000       12.0110           0
      3952 MEMB     29       POPC     H13X     HAL2     0.900000E-01   1.00800           0
      3953 MEMB     29       POPC     H13Y     HAL2     0.900000E-01   1.00800           0
      3954 MEMB     29       POPC     C314     CTL2    -0.180000       12.0110           0
      3955 MEMB     29       POPC     H14X     HAL2     0.900000E-01   1.00800           0
      3956 MEMB     29       POPC     H14Y     HAL2     0.900000E-01   1.00800           0
      3957 MEMB     29       POPC     C315     CTL2    -0.180000       12.0110           0
      3958 MEMB     29       POPC     H15X     HAL2     0.900000E-01   1.00800           0
      3959 MEMB     29       POPC     H15Y     HAL2     0.900000E-01   1.00800           0
      3960 MEMB     29       POPC     C316     CTL3    -0.270000       12.0110           0
      3961 MEMB     29       POPC     H16X     HAL3     0.900000E-01   1.00800           0
      3962 MEMB     29       POPC     H16Y     HAL3     0.900000E-01   1.00800           0
      3963 MEMB     29       POPC     H16Z     HAL3     0.900000E-01   1.00800           0
      3964 MEMB     30       POPC     N        NTL     -0.600000       14.0070           0
      3965 MEMB     30       POPC     C12      CTL2    -0.100000       12.0110           0
      3966 MEMB     30       POPC     H12A     HL       0.250000       1.00800           0
      3967 MEMB     30       POPC     H12B     HL       0.250000       1.00800           0
      3968 MEMB     30       POPC     C13      CTL5    -0.350000       12.0110           0
      3969 MEMB     30       POPC     H13A     HL       0.250000       1.00800           0
      3970 MEMB     30       POPC     H13B     HL       0.250000       1.00800           0
      3971 MEMB     30       POPC     H13C     HL       0.250000       1.00800           0
      3972 MEMB     30       POPC     C14      CTL5    -0.350000       12.0110           0
      3973 MEMB     30       POPC     H14A     HL       0.250000       1.00800           0
      3974 MEMB     30       POPC     H14B     HL       0.250000       1.00800           0
      3975 MEMB     30       POPC     H14C     HL       0.250000       1.00800           0
      3976 MEMB     30       POPC     C15      CTL5    -0.350000       12.0110           0
      3977 MEMB     30       POPC     H15A     HL       0.250000       1.00800           0
      3978 MEMB     30       POPC     H15B     HL       0.250000       1.00800           0
      3979 MEMB     30       POPC     H15C     HL       0.250000       1.00800           0
      3980 MEMB     30       POPC     C11      CTL2    -0.800000E-01   12.0110           0
      3981 MEMB     30       POPC     H11A     HAL2     0.900000E-01   1.00800           0
      3982 MEMB     30       POPC     H11B     HAL2     0.900000E-01   1.00800           0
      3983 MEMB     30       POPC     P        PL       1.500000       30.9740           0
      3984 MEMB     30       POPC     O13      O2L     -0.780000       15.9994           0
      3985 MEMB     30       POPC     O14      O2L     -0.780000       15.9994           0
      3986 MEMB     30       POPC     O12      OSLP    -0.570000       15.9994           0
      3987 MEMB     30       POPC     O11      OSLP    -0.570000       15.9994           0
      3988 MEMB     30       POPC     C1       CTL2    -0.800000E-01   12.0110           0
      3989 MEMB     30       POPC     HA       HAL2     0.900000E-01   1.00800           0
      3990 MEMB     30       POPC     HB       HAL2     0.900000E-01   1.00800           0
      3991 MEMB     30       POPC     C2       CTL1     0.170000       12.0110           0
      3992 MEMB     30       POPC     HS       HAL1     0.900000E-01   1.00800           0
      3993 MEMB     30       POPC     O21      OSL     -0.490000       15.9994           0
      3994 MEMB     30       POPC     C21      CL       0.900000       12.0110           0
      3995 MEMB     30       POPC     O22      OBL     -0.630000       15.9994           0
      3996 MEMB     30       POPC     C22      CTL2    -0.220000       12.0110           0
      3997 MEMB     30       POPC     H2R      HAL2     0.900000E-01   1.00800           0
      3998 MEMB     30       POPC     H2S      HAL2     0.900000E-01   1.00800           0
      3999 MEMB     30       POPC     C3       CTL2     0.800000E-01   12.0110           0
      4000 MEMB     30       POPC     HX       HAL2     0.900000E-01   1.00800           0
      4001 MEMB     30       POPC     HY       HAL2     0.900000E-01   1.00800           0
      4002 MEMB     30       POPC     O31      OSL     -0.490000       15.9994           0
      4003 MEMB     30       POPC     C31      CL       0.900000       12.0110           0
      4004 MEMB     30       POPC     O32      OBL     -0.630000       15.9994           0
      4005 MEMB     30       POPC     C32      CTL2    -0.220000       12.0110           0
      4006 MEMB     30       POPC     H2X      HAL2     0.900000E-01   1.00800           0
      4007 MEMB     30       POPC     H2Y      HAL2     0.900000E-01   1.00800           0
      4008 MEMB     30       POPC     C23      CTL2    -0.180000       12.0110           0
      4009 MEMB     30       POPC     H3R      HAL2     0.900000E-01   1.00800           0
      4010 MEMB     30       POPC     H3S      HAL2     0.900000E-01   1.00800           0
      4011 MEMB     30       POPC     C24      CTL2    -0.180000       12.0110           0
      4012 MEMB     30       POPC     H4R      HAL2     0.900000E-01   1.00800           0
      4013 MEMB     30       POPC     H4S      HAL2     0.900000E-01   1.00800           0
      4014 MEMB     30       POPC     C25      CTL2    -0.180000       12.0110           0
      4015 MEMB     30       POPC     H5R      HAL2     0.900000E-01   1.00800           0
      4016 MEMB     30       POPC     H5S      HAL2     0.900000E-01   1.00800           0
      4017 MEMB     30       POPC     C26      CTL2    -0.180000       12.0110           0
      4018 MEMB     30       POPC     H6R      HAL2     0.900000E-01   1.00800           0
      4019 MEMB     30       POPC     H6S      HAL2     0.900000E-01   1.00800           0
      4020 MEMB     30       POPC     C27      CTL2    -0.180000       12.0110           0
      4021 MEMB     30       POPC     H7R      HAL2     0.900000E-01   1.00800           0
      4022 MEMB     30       POPC     H7S      HAL2     0.900000E-01   1.00800           0
      4023 MEMB     30       POPC     C28      CTL2    -0.180000       12.0110           0
      4024 MEMB     30       POPC     H8R      HAL2     0.900000E-01   1.00800           0
      4025 MEMB     30       POPC     H8S      HAL2     0.900000E-01   1.00800           0
      4026 MEMB     30       POPC     C29      CEL1    -0.150000       12.0110           0
      4027 MEMB     30       POPC     H91      HEL1     0.150000       1.00800           0
      4028 MEMB     30       POPC     C210     CEL1    -0.150000       12.0110           0
      4029 MEMB     30       POPC     H101     HEL1     0.150000       1.00800           0
      4030 MEMB     30       POPC     C211     CTL2    -0.180000       12.0110           0
      4031 MEMB     30       POPC     H11R     HAL2     0.900000E-01   1.00800           0
      4032 MEMB     30       POPC     H11S     HAL2     0.900000E-01   1.00800           0
      4033 MEMB     30       POPC     C212     CTL2    -0.180000       12.0110           0
      4034 MEMB     30       POPC     H12R     HAL2     0.900000E-01   1.00800           0
      4035 MEMB     30       POPC     H12S     HAL2     0.900000E-01   1.00800           0
      4036 MEMB     30       POPC     C213     CTL2    -0.180000       12.0110           0
      4037 MEMB     30       POPC     H13R     HAL2     0.900000E-01   1.00800           0
      4038 MEMB     30       POPC     H13S     HAL2     0.900000E-01   1.00800           0
      4039 MEMB     30       POPC     C214     CTL2    -0.180000       12.0110           0
      4040 MEMB     30       POPC     H14R     HAL2     0.900000E-01   1.00800           0
      4041 MEMB     30       POPC     H14S     HAL2     0.900000E-01   1.00800           0
      4042 MEMB     30       POPC     C215     CTL2    -0.180000       12.0110           0
      4043 MEMB     30       POPC     H15R     HAL2     0.900000E-01   1.00800           0
      4044 MEMB     30       POPC     H15S     HAL2     0.900000E-01   1.00800           0
      4045 MEMB     30       POPC     C216     CTL2    -0.180000       12.0110           0
      4046 MEMB     30       POPC     H16R     HAL2     0.900000E-01   1.00800           0
      4047 MEMB     30       POPC     H16S     HAL2     0.900000E-01   1.00800           0
      4048 MEMB     30       POPC     C217     CTL2    -0.180000       12.0110           0
      4049 MEMB     30       POPC     H17R     HAL2     0.900000E-01   1.00800           0
      4050 MEMB     30       POPC     H17S     HAL2     0.900000E-01   1.00800           0
      4051 MEMB     30       POPC     C218     CTL3    -0.270000       12.0110           0
      4052 MEMB     30       POPC     H18R     HAL3     0.900000E-01   1.00800           0
      4053 MEMB     30       POPC     H18S     HAL3     0.900000E-01   1.00800           0
      4054 MEMB     30       POPC     H18T     HAL3     0.900000E-01   1.00800           0
      4055 MEMB     30       POPC     C33      CTL2    -0.180000       12.0110           0
      4056 MEMB     30       POPC     H3X      HAL2     0.900000E-01   1.00800           0
      4057 MEMB     30       POPC     H3Y      HAL2     0.900000E-01   1.00800           0
      4058 MEMB     30       POPC     C34      CTL2    -0.180000       12.0110           0
      4059 MEMB     30       POPC     H4X      HAL2     0.900000E-01   1.00800           0
      4060 MEMB     30       POPC     H4Y      HAL2     0.900000E-01   1.00800           0
      4061 MEMB     30       POPC     C35      CTL2    -0.180000       12.0110           0
      4062 MEMB     30       POPC     H5X      HAL2     0.900000E-01   1.00800           0
      4063 MEMB     30       POPC     H5Y      HAL2     0.900000E-01   1.00800           0
      4064 MEMB     30       POPC     C36      CTL2    -0.180000       12.0110           0
      4065 MEMB     30       POPC     H6X      HAL2     0.900000E-01   1.00800           0
      4066 MEMB     30       POPC     H6Y      HAL2     0.900000E-01   1.00800           0
      4067 MEMB     30       POPC     C37      CTL2    -0.180000       12.0110           0
      4068 MEMB     30       POPC     H7X      HAL2     0.900000E-01   1.00800           0
      4069 MEMB     30       POPC     H7Y      HAL2     0.900000E-01   1.00800           0
      4070 MEMB     30       POPC     C38      CTL2    -0.180000       12.0110           0
      4071 MEMB     30       POPC     H8X      HAL2     0.900000E-01   1.00800           0
      4072 MEMB     30       POPC     H8Y      HAL2     0.900000E-01   1.00800           0
      4073 MEMB     30       POPC     C39      CTL2    -0.180000       12.0110           0
      4074 MEMB     30       POPC     H9X      HAL2     0.900000E-01   1.00800           0
      4075 MEMB     30       POPC     H9Y      HAL2     0.900000E-01   1.00800           0
      4076 MEMB     30       POPC     C310     CTL2    -0.180000       12.0110           0
      4077 MEMB     30       POPC     H10X     HAL2     0.900000E-01   1.00800           0
      4078 MEMB     30       POPC     H10Y     HAL2     0.900000E-01   1.00800           0
      4079 MEMB     30       POPC     C311     CTL2    -0.180000       12.0110           0
      4080 MEMB     30       POPC     H11X     HAL2     0.900000E-01   1.00800           0
      4081 MEMB     30       POPC     H11Y     HAL2     0.900000E-01   1.00800           0
      4082 MEMB     30       POPC     C312     CTL2    -0.180000       12.0110           0
      4083 MEMB     30       POPC     H12X     HAL2     0.900000E-01   1.00800           0
      4084 MEMB     30       POPC     H12Y     HAL2     0.900000E-01   1.00800           0
      4085 MEMB     30       POPC     C313     CTL2    -0.180000       12.0110           0
      4086 MEMB     30       POPC     H13X     HAL2     0.900000E-01   1.00800           0
      4087 MEMB     30       POPC     H13Y     HAL2     0.900000E-01   1.00800           0
      4088 MEMB     30       POPC     C314     CTL2    -0.180000       12.0110           0
      4089 MEMB     30       POPC     H14X     HAL2     0.900000E-01   1.00800           0
      4090 MEMB     30       POPC     H14Y     HAL2     0.900000E-01   1.00800           0
      4091 MEMB     30       POPC     C315     CTL2    -0.180000       12.0110           0
      4092 MEMB     30       POPC     H15X     HAL2     0.900000E-01   1.00800           0
      4093 MEMB     30       POPC     H15Y     HAL2     0.900000E-01   1.00800           0
      4094 MEMB     30       POPC     C316     CTL3    -0.270000       12.0110           0
      4095 MEMB     30       POPC     H16X     HAL3     0.900000E-01   1.00800           0
      4096 MEMB     30       POPC     H16Y     HAL3     0.900000E-01   1.00800           0
      4097 MEMB     30       POPC     H16Z     HAL3     0.900000E-01   1.00800           0
      4098 MEMB     31       POPS     N        NH3L    -0.300000       14.0070           0
      4099 MEMB     31       POPS     HN1      HCL      0.330000       1.00800           0
      4100 MEMB     31       POPS     HN2      HCL      0.330000       1.00800           0
      4101 MEMB     31       POPS     HN3      HCL      0.330000       1.00800           0
      4102 MEMB     31       POPS     C12      CTL1     0.210000       12.0110           0
      4103 MEMB     31       POPS     H12A     HBL      0.100000       1.00800           0
      4104 MEMB     31       POPS     C13      CCL      0.340000       12.0110           0
      4105 MEMB     31       POPS     O13A     OCL     -0.670000       15.9994           0
      4106 MEMB     31       POPS     O13B     OCL     -0.670000       15.9994           0
      4107 MEMB     31       POPS     C11      CTL2    -0.800000E-01   12.0110           0
      4108 MEMB     31       POPS     H11A     HAL2     0.900000E-01   1.00800           0
      4109 MEMB     31       POPS     H11B     HAL2     0.900000E-01   1.00800           0
      4110 MEMB     31       POPS     P        PL       1.500000       30.9740           0
      4111 MEMB     31       POPS     O13      O2L     -0.780000       15.9994           0
      4112 MEMB     31       POPS     O14      O2L     -0.780000       15.9994           0
      4113 MEMB     31       POPS     O12      OSLP    -0.570000       15.9994           0
      4114 MEMB     31       POPS     O11      OSLP    -0.570000       15.9994           0
      4115 MEMB     31       POPS     C1       CTL2    -0.800000E-01   12.0110           0
      4116 MEMB     31       POPS     HA       HAL2     0.900000E-01   1.00800           0
      4117 MEMB     31       POPS     HB       HAL2     0.900000E-01   1.00800           0
      4118 MEMB     31       POPS     C2       CTL1     0.170000       12.0110           0
      4119 MEMB     31       POPS     HS       HAL1     0.900000E-01   1.00800           0
      4120 MEMB     31       POPS     O21      OSL     -0.490000       15.9994           0
      4121 MEMB     31       POPS     C21      CL       0.900000       12.0110           0
      4122 MEMB     31       POPS     O22      OBL     -0.630000       15.9994           0
      4123 MEMB     31       POPS     C22      CTL2    -0.220000       12.0110           0
      4124 MEMB     31       POPS     H2R      HAL2     0.900000E-01   1.00800           0
      4125 MEMB     31       POPS     H2S      HAL2     0.900000E-01   1.00800           0
      4126 MEMB     31       POPS     C3       CTL2     0.800000E-01   12.0110           0
      4127 MEMB     31       POPS     HX       HAL2     0.900000E-01   1.00800           0
      4128 MEMB     31       POPS     HY       HAL2     0.900000E-01   1.00800           0
      4129 MEMB     31       POPS     O31      OSL     -0.490000       15.9994           0
      4130 MEMB     31       POPS     C31      CL       0.900000       12.0110           0
      4131 MEMB     31       POPS     O32      OBL     -0.630000       15.9994           0
      4132 MEMB     31       POPS     C32      CTL2    -0.220000       12.0110           0
      4133 MEMB     31       POPS     H2X      HAL2     0.900000E-01   1.00800           0
      4134 MEMB     31       POPS     H2Y      HAL2     0.900000E-01   1.00800           0
      4135 MEMB     31       POPS     C23      CTL2    -0.180000       12.0110           0
      4136 MEMB     31       POPS     H3R      HAL2     0.900000E-01   1.00800           0
      4137 MEMB     31       POPS     H3S      HAL2     0.900000E-01   1.00800           0
      4138 MEMB     31       POPS     C24      CTL2    -0.180000       12.0110           0
      4139 MEMB     31       POPS     H4R      HAL2     0.900000E-01   1.00800           0
      4140 MEMB     31       POPS     H4S      HAL2     0.900000E-01   1.00800           0
      4141 MEMB     31       POPS     C25      CTL2    -0.180000       12.0110           0
      4142 MEMB     31       POPS     H5R      HAL2     0.900000E-01   1.00800           0
      4143 MEMB     31       POPS     H5S      HAL2     0.900000E-01   1.00800           0
      4144 MEMB     31       POPS     C26      CTL2    -0.180000       12.0110           0
      4145 MEMB     31       POPS     H6R      HAL2     0.900000E-01   1.00800           0
      4146 MEMB     31       POPS     H6S      HAL2     0.900000E-01   1.00800           0
      4147 MEMB     31       POPS     C27      CTL2    -0.180000       12.0110           0
      4148 MEMB     31       POPS     H7R      HAL2     0.900000E-01   1.00800           0
      4149 MEMB     31       POPS     H7S      HAL2     0.900000E-01   1.00800           0
      4150 MEMB     31       POPS     C28      CTL2    -0.180000       12.0110           0
      4151 MEMB     31       POPS     H8R      HAL2     0.900000E-01   1.00800           0
      4152 MEMB     31       POPS     H8S      HAL2     0.900000E-01   1.00800           0
      4153 MEMB     31       POPS     C29      CEL1    -0.150000       12.0110           0
      4154 MEMB     31       POPS     H91      HEL1     0.150000       1.00800           0
      4155 MEMB     31       POPS     C210     CEL1    -0.150000       12.0110           0
      4156 MEMB     31       POPS     H101     HEL1     0.150000       1.00800           0
      4157 MEMB     31       POPS     C211     CTL2    -0.180000       12.0110           0
      4158 MEMB     31       POPS     H11R     HAL2     0.900000E-01   1.00800           0
      4159 MEMB     31       POPS     H11S     HAL2     0.900000E-01   1.00800           0
      4160 MEMB     31       POPS     C212     CTL2    -0.180000       12.0110           0
      4161 MEMB     31       POPS     H12R     HAL2     0.900000E-01   1.00800           0
      4162 MEMB     31       POPS     H12S     HAL2     0.900000E-01   1.00800           0
      4163 MEMB     31       POPS     C213     CTL2    -0.180000       12.0110           0
      4164 MEMB     31       POPS     H13R     HAL2     0.900000E-01   1.00800           0
      4165 MEMB     31       POPS     H13S     HAL2     0.900000E-01   1.00800           0
      4166 MEMB     31       POPS     C214     CTL2    -0.180000       12.0110           0
      4167 MEMB     31       POPS     H14R     HAL2     0.900000E-01   1.00800           0
      4168 MEMB     31       POPS     H14S     HAL2     0.900000E-01   1.00800           0
      4169 MEMB     31       POPS     C215     CTL2    -0.180000       12.0110           0
      4170 MEMB     31       POPS     H15R     HAL2     0.900000E-01   1.00800           0
      4171 MEMB     31       POPS     H15S     HAL2     0.900000E-01   1.00800           0
      4172 MEMB     31       POPS     C216     CTL2    -0.180000       12.0110           0
      4173 MEMB     31       POPS     H16R     HAL2     0.900000E-01   1.00800           0
      4174 MEMB     31       POPS     H16S     HAL2     0.900000E-01   1.00800           0
      4175 MEMB     31       POPS     C217     CTL2    -0.180000       12.0110           0
      4176 MEMB     31       POPS     H17R     HAL2     0.900000E-01   1.00800           0
      4177 MEMB     31       POPS     H17S     HAL2     0.900000E-01   1.00800           0
      4178 MEMB     31       POPS     C218     CTL3    -0.270000       12.0110           0
      4179 MEMB     31       POPS     H18R     HAL3     0.900000E-01   1.00800           0
      4180 MEMB     31       POPS     H18S     HAL3     0.900000E-01   1.00800           0
      4181 MEMB     31       POPS     H18T     HAL3     0.900000E-01   1.00800           0
      4182 MEMB     31       POPS     C33      CTL2    -0.180000       12.0110           0
      4183 MEMB     31       POPS     H3X      HAL2     0.900000E-01   1.00800           0
      4184 MEMB     31       POPS     H3Y      HAL2     0.900000E-01   1.00800           0
      4185 MEMB     31       POPS     C34      CTL2    -0.180000       12.0110           0
      4186 MEMB     31       POPS     H4X      HAL2     0.900000E-01   1.00800           0
      4187 MEMB     31       POPS     H4Y      HAL2     0.900000E-01   1.00800           0
      4188 MEMB     31       POPS     C35      CTL2    -0.180000       12.0110           0
      4189 MEMB     31       POPS     H5X      HAL2     0.900000E-01   1.00800           0
      4190 MEMB     31       POPS     H5Y      HAL2     0.900000E-01   1.00800           0
      4191 MEMB     31       POPS     C36      CTL2    -0.180000       12.0110           0
      4192 MEMB     31       POPS     H6X      HAL2     0.900000E-01   1.00800           0
      4193 MEMB     31       POPS     H6Y      HAL2     0.900000E-01   1.00800           0
      4194 MEMB     31       POPS     C37      CTL2    -0.180000       12.0110           0
      4195 MEMB     31       POPS     H7X      HAL2     0.900000E-01   1.00800           0
      4196 MEMB     31       POPS     H7Y      HAL2     0.900000E-01   1.00800           0
      4197 MEMB     31       POPS     C38      CTL2    -0.180000       12.0110           0
      4198 MEMB     31       POPS     H8X      HAL2     0.900000E-01   1.00800           0
      4199 MEMB     31       POPS     H8Y      HAL2     0.900000E-01   1.00800           0
      4200 MEMB     31       POPS     C39      CTL2    -0.180000       12.0110           0
      4201 MEMB     31       POPS     H9X      HAL2     0.900000E-01   1.00800           0
      4202 MEMB     31       POPS     H9Y      HAL2     0.900000E-01   1.00800           0
      4203 MEMB     31       POPS     C310     CTL2    -0.180000       12.0110           0
      4204 MEMB     31       POPS     H10X     HAL2     0.900000E-01   1.00800           0
      4205 MEMB     31       POPS     H10Y     HAL2     0.900000E-01   1.00800           0
      4206 MEMB     31       POPS     C311     CTL2    -0.180000       12.0110           0
      4207 MEMB     31       POPS     H11X     HAL2     0.900000E-01   1.00800           0
      4208 MEMB     31       POPS     H11Y     HAL2     0.900000E-01   1.00800           0
      4209 MEMB     31       POPS     C312     CTL2    -0.180000       12.0110           0
      4210 MEMB     31       POPS     H12X     HAL2     0.900000E-01   1.00800           0
      4211 MEMB     31       POPS     H12Y     HAL2     0.900000E-01   1.00800           0
      4212 MEMB     31       POPS     C313     CTL2    -0.180000       12.0110           0
      4213 MEMB     31       POPS     H13X     HAL2     0.900000E-01   1.00800           0
      4214 MEMB     31       POPS     H13Y     HAL2     0.900000E-01   1.00800           0
      4215 MEMB     31       POPS     C314     CTL2    -0.180000       12.0110           0
      4216 MEMB     31       POPS     H14X     HAL2     0.900000E-01   1.00800           0
      4217 MEMB     31       POPS     H14Y     HAL2     0.900000E-01   1.00800           0
      4218 MEMB     31       POPS     C315     CTL2    -0.180000       12.0110           0
      4219 MEMB     31       POPS     H15X     HAL2     0.900000E-01   1.00800           0
      4220 MEMB     31       POPS     H15Y     HAL2     0.900000E-01   1.00800           0
      4221 MEMB     31       POPS     C316     CTL3    -0.270000       12.0110           0
      4222 MEMB     31       POPS     H16X     HAL3     0.900000E-01   1.00800           0
      4223 MEMB     31       POPS     H16Y     HAL3     0.900000E-01   1.00800           0
      4224 MEMB     31       POPS     H16Z     HAL3     0.900000E-01   1.00800           0
      4225 MEMB     32       POPC     N        NTL     -0.600000       14.0070           0
      4226 MEMB     32       POPC     C12      CTL2    -0.100000       12.0110           0
      4227 MEMB     32       POPC     H12A     HL       0.250000       1.00800           0
      4228 MEMB     32       POPC     H12B     HL       0.250000       1.00800           0
      4229 MEMB     32       POPC     C13      CTL5    -0.350000       12.0110           0
      4230 MEMB     32       POPC     H13A     HL       0.250000       1.00800           0
      4231 MEMB     32       POPC     H13B     HL       0.250000       1.00800           0
      4232 MEMB     32       POPC     H13C     HL       0.250000       1.00800           0
      4233 MEMB     32       POPC     C14      CTL5    -0.350000       12.0110           0
      4234 MEMB     32       POPC     H14A     HL       0.250000       1.00800           0
      4235 MEMB     32       POPC     H14B     HL       0.250000       1.00800           0
      4236 MEMB     32       POPC     H14C     HL       0.250000       1.00800           0
      4237 MEMB     32       POPC     C15      CTL5    -0.350000       12.0110           0
      4238 MEMB     32       POPC     H15A     HL       0.250000       1.00800           0
      4239 MEMB     32       POPC     H15B     HL       0.250000       1.00800           0
      4240 MEMB     32       POPC     H15C     HL       0.250000       1.00800           0
      4241 MEMB     32       POPC     C11      CTL2    -0.800000E-01   12.0110           0
      4242 MEMB     32       POPC     H11A     HAL2     0.900000E-01   1.00800           0
      4243 MEMB     32       POPC     H11B     HAL2     0.900000E-01   1.00800           0
      4244 MEMB     32       POPC     P        PL       1.500000       30.9740           0
      4245 MEMB     32       POPC     O13      O2L     -0.780000       15.9994           0
      4246 MEMB     32       POPC     O14      O2L     -0.780000       15.9994           0
      4247 MEMB     32       POPC     O12      OSLP    -0.570000       15.9994           0
      4248 MEMB     32       POPC     O11      OSLP    -0.570000       15.9994           0
      4249 MEMB     32       POPC     C1       CTL2    -0.800000E-01   12.0110           0
      4250 MEMB     32       POPC     HA       HAL2     0.900000E-01   1.00800           0
      4251 MEMB     32       POPC     HB       HAL2     0.900000E-01   1.00800           0
      4252 MEMB     32       POPC     C2       CTL1     0.170000       12.0110           0
      4253 MEMB     32       POPC     HS       HAL1     0.900000E-01   1.00800           0
      4254 MEMB     32       POPC     O21      OSL     -0.490000       15.9994           0
      4255 MEMB     32       POPC     C21      CL       0.900000       12.0110           0
      4256 MEMB     32       POPC     O22      OBL     -0.630000       15.9994           0
      4257 MEMB     32       POPC     C22      CTL2    -0.220000       12.0110           0
      4258 MEMB     32       POPC     H2R      HAL2     0.900000E-01   1.00800           0
      4259 MEMB     32       POPC     H2S      HAL2     0.900000E-01   1.00800           0
      4260 MEMB     32       POPC     C3       CTL2     0.800000E-01   12.0110           0
      4261 MEMB     32       POPC     HX       HAL2     0.900000E-01   1.00800           0
      4262 MEMB     32       POPC     HY       HAL2     0.900000E-01   1.00800           0
      4263 MEMB     32       POPC     O31      OSL     -0.490000       15.9994           0
      4264 MEMB     32       POPC     C31      CL       0.900000       12.0110           0
      4265 MEMB     32       POPC     O32      OBL     -0.630000       15.9994           0
      4266 MEMB     32       POPC     C32      CTL2    -0.220000       12.0110           0
      4267 MEMB     32       POPC     H2X      HAL2     0.900000E-01   1.00800           0
      4268 MEMB     32       POPC     H2Y      HAL2     0.900000E-01   1.00800           0
      4269 MEMB     32       POPC     C23      CTL2    -0.180000       12.0110           0
      4270 MEMB     32       POPC     H3R      HAL2     0.900000E-01   1.00800           0
      4271 MEMB     32       POPC     H3S      HAL2     0.900000E-01   1.00800           0
      4272 MEMB     32       POPC     C24      CTL2    -0.180000       12.0110           0
      4273 MEMB     32       POPC     H4R      HAL2     0.900000E-01   1.00800           0
      4274 MEMB     32       POPC     H4S      HAL2     0.900000E-01   1.00800           0
      4275 MEMB     32       POPC     C25      CTL2    -0.180000       12.0110           0
      4276 MEMB     32       POPC     H5R      HAL2     0.900000E-01   1.00800           0
      4277 MEMB     32       POPC     H5S      HAL2     0.900000E-01   1.00800           0
      4278 MEMB     32       POPC     C26      CTL2    -0.180000       12.0110           0
      4279 MEMB     32       POPC     H6R      HAL2     0.900000E-01   1.00800           0
      4280 MEMB     32       POPC     H6S      HAL2     0.900000E-01   1.00800           0
      4281 MEMB     32       POPC     C27      CTL2    -0.180000       12.0110           0
      4282 MEMB     32       POPC     H7R      HAL2     0.900000E-01   1.00800           0
      4283 MEMB     32       POPC     H7S      HAL2     0.900000E-01   1.00800           0
      4284 MEMB     32       POPC     C28      CTL2    -0.180000       12.0110           0
      4285 MEMB     32       POPC     H8R      HAL2     0.900000E-01   1.00800           0
      4286 MEMB     32       POPC     H8S      HAL2     0.900000E-01   1.00800           0
      4287 MEMB     32       POPC     C29      CEL1    -0.150000       12.0110           0
      4288 MEMB     32       POPC     H91      HEL1     0.150000       1.00800           0
      4289 MEMB     32       POPC     C210     CEL1    -0.150000       12.0110           0
      4290 MEMB     32       POPC     H101     HEL1     0.150000       1.00800           0
      4291 MEMB     32       POPC     C211     CTL2    -0.180000       12.0110           0
      4292 MEMB     32       POPC     H11R     HAL2     0.900000E-01   1.00800           0
      4293 MEMB     32       POPC     H11S     HAL2     0.900000E-01   1.00800           0
      4294 MEMB     32       POPC     C212     CTL2    -0.180000       12.0110           0
      4295 MEMB     32       POPC     H12R     HAL2     0.900000E-01   1.00800           0
      4296 MEMB     32       POPC     H12S     HAL2     0.900000E-01   1.00800           0
      4297 MEMB     32       POPC     C213     CTL2    -0.180000       12.0110           0
      4298 MEMB     32       POPC     H13R     HAL2     0.900000E-01   1.00800           0
      4299 MEMB     32       POPC     H13S     HAL2     0.900000E-01   1.00800           0
      4300 MEMB     32       POPC     C214     CTL2    -0.180000       12.0110           0
      4301 MEMB     32       POPC     H14R     HAL2     0.900000E-01   1.00800           0
      4302 MEMB     32       POPC     H14S     HAL2     0.900000E-01   1.00800           0
      4303 MEMB     32       POPC     C215     CTL2    -0.180000       12.0110           0
      4304 MEMB     32       POPC     H15R     HAL2     0.900000E-01   1.00800           0
      4305 MEMB     32       POPC     H15S     HAL2     0.900000E-01   1.00800           0
      4306 MEMB     32       POPC     C216     CTL2    -0.180000       12.0110           0
      4307 MEMB     32       POPC     H16R     HAL2     0.900000E-01   1.00800           0
      4308 MEMB     32       POPC     H16S     HAL2     0.900000E-01   1.00800           0
      4309 MEMB     32       POPC     C217     CTL2    -0.180000       12.0110           0
      4310 MEMB     32       POPC     H17R     HAL2     0.900000E-01   1.00800           0
      4311 MEMB     32       POPC     H17S     HAL2     0.900000E-01   1.00800           0
      4312 MEMB     32       POPC     C218     CTL3    -0.270000       12.0110           0
      4313 MEMB     32       POPC     H18R     HAL3     0.900000E-01   1.00800           0
      4314 MEMB     32       POPC     H18S     HAL3     0.900000E-01   1.00800           0
      4315 MEMB     32       POPC     H18T     HAL3     0.900000E-01   1.00800           0
      4316 MEMB     32       POPC     C33      CTL2    -0.180000       12.0110           0
      4317 MEMB     32       POPC     H3X      HAL2     0.900000E-01   1.00800           0
      4318 MEMB     32       POPC     H3Y      HAL2     0.900000E-01   1.00800           0
      4319 MEMB     32       POPC     C34      CTL2    -0.180000       12.0110           0
      4320 MEMB     32       POPC     H4X      HAL2     0.900000E-01   1.00800           0
      4321 MEMB     32       POPC     H4Y      HAL2     0.900000E-01   1.00800           0
      4322 MEMB     32       POPC     C35      CTL2    -0.180000       12.0110           0
      4323 MEMB     32       POPC     H5X      HAL2     0.900000E-01   1.00800           0
      4324 MEMB     32       POPC     H5Y      HAL2     0.900000E-01   1.00800           0
      4325 MEMB     32       POPC     C36      CTL2    -0.180000       12.0110           0
      4326 MEMB     32       POPC     H6X      HAL2     0.900000E-01   1.00800           0
      4327 MEMB     32       POPC     H6Y      HAL2     0.900000E-01   1.00800           0
      4328 MEMB     32       POPC     C37      CTL2    -0.180000       12.0110           0
      4329 MEMB     32       POPC     H7X      HAL2     0.900000E-01   1.00800           0
      4330 MEMB     32       POPC     H7Y      HAL2     0.900000E-01   1.00800           0
      4331 MEMB     32       POPC     C38      CTL2    -0.180000       12.0110           0
      4332 MEMB     32       POPC     H8X      HAL2     0.900000E-01   1.00800           0
      4333 MEMB     32       POPC     H8Y      HAL2     0.900000E-01   1.00800           0
      4334 MEMB     32       POPC     C39      CTL2    -0.180000       12.0110           0
      4335 MEMB     32       POPC     H9X      HAL2     0.900000E-01   1.00800           0
      4336 MEMB     32       POPC     H9Y      HAL2     0.900000E-01   1.00800           0
      4337 MEMB     32       POPC     C310     CTL2    -0.180000       12.0110           0
      4338 MEMB     32       POPC     H10X     HAL2     0.900000E-01   1.00800           0
      4339 MEMB     32       POPC     H10Y     HAL2     0.900000E-01   1.00800           0
      4340 MEMB     32       POPC     C311     CTL2    -0.180000       12.0110           0
      4341 MEMB     32       POPC     H11X     HAL2     0.900000E-01   1.00800           0
      4342 MEMB     32       POPC     H11Y     HAL2     0.900000E-01   1.00800           0
      4343 MEMB     32       POPC     C312     CTL2    -0.180000       12.0110           0
      4344 MEMB     32       POPC     H12X     HAL2     0.900000E-01   1.00800           0
      4345 MEMB     32       POPC     H12Y     HAL2     0.900000E-01   1.00800           0
      4346 MEMB     32       POPC     C313     CTL2    -0.180000       12.0110           0
      4347 MEMB     32       POPC     H13X     HAL2     0.900000E-01   1.00800           0
      4348 MEMB     32       POPC     H13Y     HAL2     0.900000E-01   1.00800           0
      4349 MEMB     32       POPC     C314     CTL2    -0.180000       12.0110           0
      4350 MEMB     32       POPC     H14X     HAL2     0.900000E-01   1.00800           0
      4351 MEMB     32       POPC     H14Y     HAL2     0.900000E-01   1.00800           0
      4352 MEMB     32       POPC     C315     CTL2    -0.180000       12.0110           0
      4353 MEMB     32       POPC     H15X     HAL2     0.900000E-01   1.00800           0
      4354 MEMB     32       POPC     H15Y     HAL2     0.900000E-01   1.00800           0
      4355 MEMB     32       POPC     C316     CTL3    -0.270000       12.0110           0
      4356 MEMB     32       POPC     H16X     HAL3     0.900000E-01   1.00800           0
      4357 MEMB     32       POPC     H16Y     HAL3     0.900000E-01   1.00800           0
      4358 MEMB     32       POPC     H16Z     HAL3     0.900000E-01   1.00800           0
      4359 MEMB     33       POPC     N        NTL     -0.600000       14.0070           0
      4360 MEMB     33       POPC     C12      CTL2    -0.100000       12.0110           0
      4361 MEMB     33       POPC     H12A     HL       0.250000       1.00800           0
      4362 MEMB     33       POPC     H12B     HL       0.250000       1.00800           0
      4363 MEMB     33       POPC     C13      CTL5    -0.350000       12.0110           0
      4364 MEMB     33       POPC     H13A     HL       0.250000       1.00800           0
      4365 MEMB     33       POPC     H13B     HL       0.250000       1.00800           0
      4366 MEMB     33       POPC     H13C     HL       0.250000       1.00800           0
      4367 MEMB     33       POPC     C14      CTL5    -0.350000       12.0110           0
      4368 MEMB     33       POPC     H14A     HL       0.250000       1.00800           0
      4369 MEMB     33       POPC     H14B     HL       0.250000       1.00800           0
      4370 MEMB     33       POPC     H14C     HL       0.250000       1.00800           0
      4371 MEMB     33       POPC     C15      CTL5    -0.350000       12.0110           0
      4372 MEMB     33       POPC     H15A     HL       0.250000       1.00800           0
      4373 MEMB     33       POPC     H15B     HL       0.250000       1.00800           0
      4374 MEMB     33       POPC     H15C     HL       0.250000       1.00800           0
      4375 MEMB     33       POPC     C11      CTL2    -0.800000E-01   12.0110           0
      4376 MEMB     33       POPC     H11A     HAL2     0.900000E-01   1.00800           0
      4377 MEMB     33       POPC     H11B     HAL2     0.900000E-01   1.00800           0
      4378 MEMB     33       POPC     P        PL       1.500000       30.9740           0
      4379 MEMB     33       POPC     O13      O2L     -0.780000       15.9994           0
      4380 MEMB     33       POPC     O14      O2L     -0.780000       15.9994           0
      4381 MEMB     33       POPC     O12      OSLP    -0.570000       15.9994           0
      4382 MEMB     33       POPC     O11      OSLP    -0.570000       15.9994           0
      4383 MEMB     33       POPC     C1       CTL2    -0.800000E-01   12.0110           0
      4384 MEMB     33       POPC     HA       HAL2     0.900000E-01   1.00800           0
      4385 MEMB     33       POPC     HB       HAL2     0.900000E-01   1.00800           0
      4386 MEMB     33       POPC     C2       CTL1     0.170000       12.0110           0
      4387 MEMB     33       POPC     HS       HAL1     0.900000E-01   1.00800           0
      4388 MEMB     33       POPC     O21      OSL     -0.490000       15.9994           0
      4389 MEMB     33       POPC     C21      CL       0.900000       12.0110           0
      4390 MEMB     33       POPC     O22      OBL     -0.630000       15.9994           0
      4391 MEMB     33       POPC     C22      CTL2    -0.220000       12.0110           0
      4392 MEMB     33       POPC     H2R      HAL2     0.900000E-01   1.00800           0
      4393 MEMB     33       POPC     H2S      HAL2     0.900000E-01   1.00800           0
      4394 MEMB     33       POPC     C3       CTL2     0.800000E-01   12.0110           0
      4395 MEMB     33       POPC     HX       HAL2     0.900000E-01   1.00800           0
      4396 MEMB     33       POPC     HY       HAL2     0.900000E-01   1.00800           0
      4397 MEMB     33       POPC     O31      OSL     -0.490000       15.9994           0
      4398 MEMB     33       POPC     C31      CL       0.900000       12.0110           0
      4399 MEMB     33       POPC     O32      OBL     -0.630000       15.9994           0
      4400 MEMB     33       POPC     C32      CTL2    -0.220000       12.0110           0
      4401 MEMB     33       POPC     H2X      HAL2     0.900000E-01   1.00800           0
      4402 MEMB     33       POPC     H2Y      HAL2     0.900000E-01   1.00800           0
      4403 MEMB     33       POPC     C23      CTL2    -0.180000       12.0110           0
      4404 MEMB     33       POPC     H3R      HAL2     0.900000E-01   1.00800           0
      4405 MEMB     33       POPC     H3S      HAL2     0.900000E-01   1.00800           0
      4406 MEMB     33       POPC     C24      CTL2    -0.180000       12.0110           0
      4407 MEMB     33       POPC     H4R      HAL2     0.900000E-01   1.00800           0
      4408 MEMB     33       POPC     H4S      HAL2     0.900000E-01   1.00800           0
      4409 MEMB     33       POPC     C25      CTL2    -0.180000       12.0110           0
      4410 MEMB     33       POPC     H5R      HAL2     0.900000E-01   1.00800           0
      4411 MEMB     33       POPC     H5S      HAL2     0.900000E-01   1.00800           0
      4412 MEMB     33       POPC     C26      CTL2    -0.180000       12.0110           0
      4413 MEMB     33       POPC     H6R      HAL2     0.900000E-01   1.00800           0
      4414 MEMB     33       POPC     H6S      HAL2     0.900000E-01   1.00800           0
      4415 MEMB     33       POPC     C27      CTL2    -0.180000       12.0110           0
      4416 MEMB     33       POPC     H7R      HAL2     0.900000E-01   1.00800           0
      4417 MEMB     33       POPC     H7S      HAL2     0.900000E-01   1.00800           0
      4418 MEMB     33       POPC     C28      CTL2    -0.180000       12.0110           0
      4419 MEMB     33       POPC     H8R      HAL2     0.900000E-01   1.00800           0
      4420 MEMB     33       POPC     H8S      HAL2     0.900000E-01   1.00800           0
      4421 MEMB     33       POPC     C29      CEL1    -0.150000       12.0110           0
      4422 MEMB     33       POPC     H91      HEL1     0.150000       1.00800           0
      4423 MEMB     33       POPC     C210     CEL1    -0.150000       12.0110           0
      4424 MEMB     33       POPC     H101     HEL1     0.150000       1.00800           0
      4425 MEMB     33       POPC     C211     CTL2    -0.180000       12.0110           0
      4426 MEMB     33       POPC     H11R     HAL2     0.900000E-01   1.00800           0
      4427 MEMB     33       POPC     H11S     HAL2     0.900000E-01   1.00800           0
      4428 MEMB     33       POPC     C212     CTL2    -0.180000       12.0110           0
      4429 MEMB     33       POPC     H12R     HAL2     0.900000E-01   1.00800           0
      4430 MEMB     33       POPC     H12S     HAL2     0.900000E-01   1.00800           0
      4431 MEMB     33       POPC     C213     CTL2    -0.180000       12.0110           0
      4432 MEMB     33       POPC     H13R     HAL2     0.900000E-01   1.00800           0
      4433 MEMB     33       POPC     H13S     HAL2     0.900000E-01   1.00800           0
      4434 MEMB     33       POPC     C214     CTL2    -0.180000       12.0110           0
      4435 MEMB     33       POPC     H14R     HAL2     0.900000E-01   1.00800           0
      4436 MEMB     33       POPC     H14S     HAL2     0.900000E-01   1.00800           0
      4437 MEMB     33       POPC     C215     CTL2    -0.180000       12.0110           0
      4438 MEMB     33       POPC     H15R     HAL2     0.900000E-01   1.00800           0
      4439 MEMB     33       POPC     H15S     HAL2     0.900000E-01   1.00800           0
      4440 MEMB     33       POPC     C216     CTL2    -0.180000       12.0110           0
      4441 MEMB     33       POPC     H16R     HAL2     0.900000E-01   1.00800           0
      4442 MEMB     33       POPC     H16S     HAL2     0.900000E-01   1.00800           0
      4443 MEMB     33       POPC     C217     CTL2    -0.180000       12.0110           0
      4444 MEMB     33       POPC     H17R     HAL2     0.900000E-01   1.00800           0
      4445 MEMB     33       POPC     H17S     HAL2     0.900000E-01   1.00800           0
      4446 MEMB     33       POPC     C218     CTL3    -0.270000       12.0110           0
      4447 MEMB     33       POPC     H18R     HAL3     0.900000E-01   1.00800           0
      4448 MEMB     33       POPC     H18S     HAL3     0.900000E-01   1.00800           0
      4449 MEMB     33       POPC     H18T     HAL3     0.900000E-01   1.00800           0
      4450 MEMB     33       POPC     C33      CTL2    -0.180000       12.0110           0
      4451 MEMB     33       POPC     H3X      HAL2     0.900000E-01   1.00800           0
      4452 MEMB     33       POPC     H3Y      HAL2     0.900000E-01   1.00800           0
      4453 MEMB     33       POPC     C34      CTL2    -0.180000       12.0110           0
      4454 MEMB     33       POPC     H4X      HAL2     0.900000E-01   1.00800           0
      4455 MEMB     33       POPC     H4Y      HAL2     0.900000E-01   1.00800           0
      4456 MEMB     33       POPC     C35      CTL2    -0.180000       12.0110           0
      4457 MEMB     33       POPC     H5X      HAL2     0.900000E-01   1.00800           0
      4458 MEMB     33       POPC     H5Y      HAL2     0.900000E-01   1.00800           0
      4459 MEMB     33       POPC     C36      CTL2    -0.180000       12.0110           0
      4460 MEMB     33       POPC     H6X      HAL2     0.900000E-01   1.00800           0
      4461 MEMB     33       POPC     H6Y      HAL2     0.900000E-01   1.00800           0
      4462 MEMB     33       POPC     C37      CTL2    -0.180000       12.0110           0
      4463 MEMB     33       POPC     H7X      HAL2     0.900000E-01   1.00800           0
      4464 MEMB     33       POPC     H7Y      HAL2     0.900000E-01   1.00800           0
      4465 MEMB     33       POPC     C38      CTL2    -0.180000       12.0110           0
      4466 MEMB     33       POPC     H8X      HAL2     0.900000E-01   1.00800           0
      4467 MEMB     33       POPC     H8Y      HAL2     0.900000E-01   1.00800           0
      4468 MEMB     33       POPC     C39      CTL2    -0.180000       12.0110           0
      4469 MEMB     33       POPC     H9X      HAL2     0.900000E-01   1.00800           0
      4470 MEMB     33       POPC     H9Y      HAL2     0.900000E-01   1.00800           0
      4471 MEMB     33       POPC     C310     CTL2    -0.180000       12.0110           0
      4472 MEMB     33       POPC     H10X     HAL2     0.900000E-01   1.00800           0
      4473 MEMB     33       POPC     H10Y     HAL2     0.900000E-01   1.00800           0
      4474 MEMB     33       POPC     C311     CTL2    -0.180000       12.0110           0
      4475 MEMB     33       POPC     H11X     HAL2     0.900000E-01   1.00800           0
      4476 MEMB     33       POPC     H11Y     HAL2     0.900000E-01   1.00800           0
      4477 MEMB     33       POPC     C312     CTL2    -0.180000       12.0110           0
      4478 MEMB     33       POPC     H12X     HAL2     0.900000E-01   1.00800           0
      4479 MEMB     33       POPC     H12Y     HAL2     0.900000E-01   1.00800           0
      4480 MEMB     33       POPC     C313     CTL2    -0.180000       12.0110           0
      4481 MEMB     33       POPC     H13X     HAL2     0.900000E-01   1.00800           0
      4482 MEMB     33       POPC     H13Y     HAL2     0.900000E-01   1.00800           0
      4483 MEMB     33       POPC     C314     CTL2    -0.180000       12.0110           0
      4484 MEMB     33       POPC     H14X     HAL2     0.900000E-01   1.00800           0
      4485 MEMB     33       POPC     H14Y     HAL2     0.900000E-01   1.00800           0
      4486 MEMB     33       POPC     C315     CTL2    -0.180000       12.0110           0
      4487 MEMB     33       POPC     H15X     HAL2     0.900000E-01   1.00800           0
      4488 MEMB     33       POPC     H15Y     HAL2     0.900000E-01   1.00800           0
      4489 MEMB     33       POPC     C316     CTL3    -0.270000       12.0110           0
      4490 MEMB     33       POPC     H16X     HAL3     0.900000E-01   1.00800           0
      4491 MEMB     33       POPC     H16Y     HAL3     0.900000E-01   1.00800           0
      4492 MEMB     33       POPC     H16Z     HAL3     0.900000E-01   1.00800           0
      4493 MEMB     34       POPC     N        NTL     -0.600000       14.0070           0
      4494 MEMB     34       POPC     C12      CTL2    -0.100000       12.0110           0
      4495 MEMB     34       POPC     H12A     HL       0.250000       1.00800           0
      4496 MEMB     34       POPC     H12B     HL       0.250000       1.00800           0
      4497 MEMB     34       POPC     C13      CTL5    -0.350000       12.0110           0
      4498 MEMB     34       POPC     H13A     HL       0.250000       1.00800           0
      4499 MEMB     34       POPC     H13B     HL       0.250000       1.00800           0
      4500 MEMB     34       POPC     H13C     HL       0.250000       1.00800           0
      4501 MEMB     34       POPC     C14      CTL5    -0.350000       12.0110           0
      4502 MEMB     34       POPC     H14A     HL       0.250000       1.00800           0
      4503 MEMB     34       POPC     H14B     HL       0.250000       1.00800           0
      4504 MEMB     34       POPC     H14C     HL       0.250000       1.00800           0
      4505 MEMB     34       POPC     C15      CTL5    -0.350000       12.0110           0
      4506 MEMB     34       POPC     H15A     HL       0.250000       1.00800           0
      4507 MEMB     34       POPC     H15B     HL       0.250000       1.00800           0
      4508 MEMB     34       POPC     H15C     HL       0.250000       1.00800           0
      4509 MEMB     34       POPC     C11      CTL2    -0.800000E-01   12.0110           0
      4510 MEMB     34       POPC     H11A     HAL2     0.900000E-01   1.00800           0
      4511 MEMB     34       POPC     H11B     HAL2     0.900000E-01   1.00800           0
      4512 MEMB     34       POPC     P        PL       1.500000       30.9740           0
      4513 MEMB     34       POPC     O13      O2L     -0.780000       15.9994           0
      4514 MEMB     34       POPC     O14      O2L     -0.780000       15.9994           0
      4515 MEMB     34       POPC     O12      OSLP    -0.570000       15.9994           0
      4516 MEMB     34       POPC     O11      OSLP    -0.570000       15.9994           0
      4517 MEMB     34       POPC     C1       CTL2    -0.800000E-01   12.0110           0
      4518 MEMB     34       POPC     HA       HAL2     0.900000E-01   1.00800           0
      4519 MEMB     34       POPC     HB       HAL2     0.900000E-01   1.00800           0
      4520 MEMB     34       POPC     C2       CTL1     0.170000       12.0110           0
      4521 MEMB     34       POPC     HS       HAL1     0.900000E-01   1.00800           0
      4522 MEMB     34       POPC     O21      OSL     -0.490000       15.9994           0
      4523 MEMB     34       POPC     C21      CL       0.900000       12.0110           0
      4524 MEMB     34       POPC     O22      OBL     -0.630000       15.9994           0
      4525 MEMB     34       POPC     C22      CTL2    -0.220000       12.0110           0
      4526 MEMB     34       POPC     H2R      HAL2     0.900000E-01   1.00800           0
      4527 MEMB     34       POPC     H2S      HAL2     0.900000E-01   1.00800           0
      4528 MEMB     34       POPC     C3       CTL2     0.800000E-01   12.0110           0
      4529 MEMB     34       POPC     HX       HAL2     0.900000E-01   1.00800           0
      4530 MEMB     34       POPC     HY       HAL2     0.900000E-01   1.00800           0
      4531 MEMB     34       POPC     O31      OSL     -0.490000       15.9994           0
      4532 MEMB     34       POPC     C31      CL       0.900000       12.0110           0
      4533 MEMB     34       POPC     O32      OBL     -0.630000       15.9994           0
      4534 MEMB     34       POPC     C32      CTL2    -0.220000       12.0110           0
      4535 MEMB     34       POPC     H2X      HAL2     0.900000E-01   1.00800           0
      4536 MEMB     34       POPC     H2Y      HAL2     0.900000E-01   1.00800           0
      4537 MEMB     34       POPC     C23      CTL2    -0.180000       12.0110           0
      4538 MEMB     34       POPC     H3R      HAL2     0.900000E-01   1.00800           0
      4539 MEMB     34       POPC     H3S      HAL2     0.900000E-01   1.00800           0
      4540 MEMB     34       POPC     C24      CTL2    -0.180000       12.0110           0
      4541 MEMB     34       POPC     H4R      HAL2     0.900000E-01   1.00800           0
      4542 MEMB     34       POPC     H4S      HAL2     0.900000E-01   1.00800           0
      4543 MEMB     34       POPC     C25      CTL2    -0.180000       12.0110           0
      4544 MEMB     34       POPC     H5R      HAL2     0.900000E-01   1.00800           0
      4545 MEMB     34       POPC     H5S      HAL2     0.900000E-01   1.00800           0
      4546 MEMB     34       POPC     C26      CTL2    -0.180000       12.0110           0
      4547 MEMB     34       POPC     H6R      HAL2     0.900000E-01   1.00800           0
      4548 MEMB     34       POPC     H6S      HAL2     0.900000E-01   1.00800           0
      4549 MEMB     34       POPC     C27      CTL2    -0.180000       12.0110           0
      4550 MEMB     34       POPC     H7R      HAL2     0.900000E-01   1.00800           0
      4551 MEMB     34       POPC     H7S      HAL2     0.900000E-01   1.00800           0
      4552 MEMB     34       POPC     C28      CTL2    -0.180000       12.0110           0
      4553 MEMB     34       POPC     H8R      HAL2     0.900000E-01   1.00800           0
      4554 MEMB     34       POPC     H8S      HAL2     0.900000E-01   1.00800           0
      4555 MEMB     34       POPC     C29      CEL1    -0.150000       12.0110           0
      4556 MEMB     34       POPC     H91      HEL1     0.150000       1.00800           0
      4557 MEMB     34       POPC     C210     CEL1    -0.150000       12.0110           0
      4558 MEMB     34       POPC     H101     HEL1     0.150000       1.00800           0
      4559 MEMB     34       POPC     C211     CTL2    -0.180000       12.0110           0
      4560 MEMB     34       POPC     H11R     HAL2     0.900000E-01   1.00800           0
      4561 MEMB     34       POPC     H11S     HAL2     0.900000E-01   1.00800           0
      4562 MEMB     34       POPC     C212     CTL2    -0.180000       12.0110           0
      4563 MEMB     34       POPC     H12R     HAL2     0.900000E-01   1.00800           0
      4564 MEMB     34       POPC     H12S     HAL2     0.900000E-01   1.00800           0
      4565 MEMB     34       POPC     C213     CTL2    -0.180000       12.0110           0
      4566 MEMB     34       POPC     H13R     HAL2     0.900000E-01   1.00800           0
      4567 MEMB     34       POPC     H13S     HAL2     0.900000E-01   1.00800           0
      4568 MEMB     34       POPC     C214     CTL2    -0.180000       12.0110           0
      4569 MEMB     34       POPC     H14R     HAL2     0.900000E-01   1.00800           0
      4570 MEMB     34       POPC     H14S     HAL2     0.900000E-01   1.00800           0
      4571 MEMB     34       POPC     C215     CTL2    -0.180000       12.0110           0
      4572 MEMB     34       POPC     H15R     HAL2     0.900000E-01   1.00800           0
      4573 MEMB     34       POPC     H15S     HAL2     0.900000E-01   1.00800           0
      4574 MEMB     34       POPC     C216     CTL2    -0.180000       12.0110           0
      4575 MEMB     34       POPC     H16R     HAL2     0.900000E-01   1.00800           0
      4576 MEMB     34       POPC     H16S     HAL2     0.900000E-01   1.00800           0
      4577 MEMB     34       POPC     C217     CTL2    -0.180000       12.0110           0
      4578 MEMB     34       POPC     H17R     HAL2     0.900000E-01   1.00800           0
      4579 MEMB     34       POPC     H17S     HAL2     0.900000E-01   1.00800           0
      4580 MEMB     34       POPC     C218     CTL3    -0.270000       12.0110           0
      4581 MEMB     34       POPC     H18R     HAL3     0.900000E-01   1.00800           0
      4582 MEMB     34       POPC     H18S     HAL3     0.900000E-01   1.00800           0
      4583 MEMB     34       POPC     H18T     HAL3     0.900000E-01   1.00800           0
      4584 MEMB     34       POPC     C33      CTL2    -0.180000       12.0110           0
      4585 MEMB     34       POPC     H3X      HAL2     0.900000E-01   1.00800           0
      4586 MEMB     34       POPC     H3Y      HAL2     0.900000E-01   1.00800           0
      4587 MEMB     34       POPC     C34      CTL2    -0.180000       12.0110           0
      4588 MEMB     34       POPC     H4X      HAL2     0.900000E-01   1.00800           0
      4589 MEMB     34       POPC     H4Y      HAL2     0.900000E-01   1.00800           0
      4590 MEMB     34       POPC     C35      CTL2    -0.180000       12.0110           0
      4591 MEMB     34       POPC     H5X      HAL2     0.900000E-01   1.00800           0
      4592 MEMB     34       POPC     H5Y      HAL2     0.900000E-01   1.00800           0
      4593 MEMB     34       POPC     C36      CTL2    -0.180000       12.0110           0
      4594 MEMB     34       POPC     H6X      HAL2     0.900000E-01   1.00800           0
      4595 MEMB     34       POPC     H6Y      HAL2     0.900000E-01   1.00800           0
      4596 MEMB     34       POPC     C37      CTL2    -0.180000       12.0110           0
      4597 MEMB     34       POPC     H7X      HAL2     0.900000E-01   1.00800           0
      4598 MEMB     34       POPC     H7Y      HAL2     0.900000E-01   1.00800           0
      4599 MEMB     34       POPC     C38      CTL2    -0.180000       12.0110           0
      4600 MEMB     34       POPC     H8X      HAL2     0.900000E-01   1.00800           0
      4601 MEMB     34       POPC     H8Y      HAL2     0.900000E-01   1.00800           0
      4602 MEMB     34       POPC     C39      CTL2    -0.180000       12.0110           0
      4603 MEMB     34       POPC     H9X      HAL2     0.900000E-01   1.00800           0
      4604 MEMB     34       POPC     H9Y      HAL2     0.900000E-01   1.00800           0
      4605 MEMB     34       POPC     C310     CTL2    -0.180000       12.0110           0
      4606 MEMB     34       POPC     H10X     HAL2     0.900000E-01   1.00800           0
      4607 MEMB     34       POPC     H10Y     HAL2     0.900000E-01   1.00800           0
      4608 MEMB     34       POPC     C311     CTL2    -0.180000       12.0110           0
      4609 MEMB     34       POPC     H11X     HAL2     0.900000E-01   1.00800           0
      4610 MEMB     34       POPC     H11Y     HAL2     0.900000E-01   1.00800           0
      4611 MEMB     34       POPC     C312     CTL2    -0.180000       12.0110           0
      4612 MEMB     34       POPC     H12X     HAL2     0.900000E-01   1.00800           0
      4613 MEMB     34       POPC     H12Y     HAL2     0.900000E-01   1.00800           0
      4614 MEMB     34       POPC     C313     CTL2    -0.180000       12.0110           0
      4615 MEMB     34       POPC     H13X     HAL2     0.900000E-01   1.00800           0
      4616 MEMB     34       POPC     H13Y     HAL2     0.900000E-01   1.00800           0
      4617 MEMB     34       POPC     C314     CTL2    -0.180000       12.0110           0
      4618 MEMB     34       POPC     H14X     HAL2     0.900000E-01   1.00800           0
      4619 MEMB     34       POPC     H14Y     HAL2     0.900000E-01   1.00800           0
      4620 MEMB     34       POPC     C315     CTL2    -0.180000       12.0110           0
      4621 MEMB     34       POPC     H15X     HAL2     0.900000E-01   1.00800           0
      4622 MEMB     34       POPC     H15Y     HAL2     0.900000E-01   1.00800           0
      4623 MEMB     34       POPC     C316     CTL3    -0.270000       12.0110           0
      4624 MEMB     34       POPC     H16X     HAL3     0.900000E-01   1.00800           0
      4625 MEMB     34       POPC     H16Y     HAL3     0.900000E-01   1.00800           0
      4626 MEMB     34       POPC     H16Z     HAL3     0.900000E-01   1.00800           0
      4627 MEMB     35       POPC     N        NTL     -0.600000       14.0070           0
      4628 MEMB     35       POPC     C12      CTL2    -0.100000       12.0110           0
      4629 MEMB     35       POPC     H12A     HL       0.250000       1.00800           0
      4630 MEMB     35       POPC     H12B     HL       0.250000       1.00800           0
      4631 MEMB     35       POPC     C13      CTL5    -0.350000       12.0110           0
      4632 MEMB     35       POPC     H13A     HL       0.250000       1.00800           0
      4633 MEMB     35       POPC     H13B     HL       0.250000       1.00800           0
      4634 MEMB     35       POPC     H13C     HL       0.250000       1.00800           0
      4635 MEMB     35       POPC     C14      CTL5    -0.350000       12.0110           0
      4636 MEMB     35       POPC     H14A     HL       0.250000       1.00800           0
      4637 MEMB     35       POPC     H14B     HL       0.250000       1.00800           0
      4638 MEMB     35       POPC     H14C     HL       0.250000       1.00800           0
      4639 MEMB     35       POPC     C15      CTL5    -0.350000       12.0110           0
      4640 MEMB     35       POPC     H15A     HL       0.250000       1.00800           0
      4641 MEMB     35       POPC     H15B     HL       0.250000       1.00800           0
      4642 MEMB     35       POPC     H15C     HL       0.250000       1.00800           0
      4643 MEMB     35       POPC     C11      CTL2    -0.800000E-01   12.0110           0
      4644 MEMB     35       POPC     H11A     HAL2     0.900000E-01   1.00800           0
      4645 MEMB     35       POPC     H11B     HAL2     0.900000E-01   1.00800           0
      4646 MEMB     35       POPC     P        PL       1.500000       30.9740           0
      4647 MEMB     35       POPC     O13      O2L     -0.780000       15.9994           0
      4648 MEMB     35       POPC     O14      O2L     -0.780000       15.9994           0
      4649 MEMB     35       POPC     O12      OSLP    -0.570000       15.9994           0
      4650 MEMB     35       POPC     O11      OSLP    -0.570000       15.9994           0
      4651 MEMB     35       POPC     C1       CTL2    -0.800000E-01   12.0110           0
      4652 MEMB     35       POPC     HA       HAL2     0.900000E-01   1.00800           0
      4653 MEMB     35       POPC     HB       HAL2     0.900000E-01   1.00800           0
      4654 MEMB     35       POPC     C2       CTL1     0.170000       12.0110           0
      4655 MEMB     35       POPC     HS       HAL1     0.900000E-01   1.00800           0
      4656 MEMB     35       POPC     O21      OSL     -0.490000       15.9994           0
      4657 MEMB     35       POPC     C21      CL       0.900000       12.0110           0
      4658 MEMB     35       POPC     O22      OBL     -0.630000       15.9994           0
      4659 MEMB     35       POPC     C22      CTL2    -0.220000       12.0110           0
      4660 MEMB     35       POPC     H2R      HAL2     0.900000E-01   1.00800           0
      4661 MEMB     35       POPC     H2S      HAL2     0.900000E-01   1.00800           0
      4662 MEMB     35       POPC     C3       CTL2     0.800000E-01   12.0110           0
      4663 MEMB     35       POPC     HX       HAL2     0.900000E-01   1.00800           0
      4664 MEMB     35       POPC     HY       HAL2     0.900000E-01   1.00800           0
      4665 MEMB     35       POPC     O31      OSL     -0.490000       15.9994           0
      4666 MEMB     35       POPC     C31      CL       0.900000       12.0110           0
      4667 MEMB     35       POPC     O32      OBL     -0.630000       15.9994           0
      4668 MEMB     35       POPC     C32      CTL2    -0.220000       12.0110           0
      4669 MEMB     35       POPC     H2X      HAL2     0.900000E-01   1.00800           0
      4670 MEMB     35       POPC     H2Y      HAL2     0.900000E-01   1.00800           0
      4671 MEMB     35       POPC     C23      CTL2    -0.180000       12.0110           0
      4672 MEMB     35       POPC     H3R      HAL2     0.900000E-01   1.00800           0
      4673 MEMB     35       POPC     H3S      HAL2     0.900000E-01   1.00800           0
      4674 MEMB     35       POPC     C24      CTL2    -0.180000       12.0110           0
      4675 MEMB     35       POPC     H4R      HAL2     0.900000E-01   1.00800           0
      4676 MEMB     35       POPC     H4S      HAL2     0.900000E-01   1.00800           0
      4677 MEMB     35       POPC     C25      CTL2    -0.180000       12.0110           0
      4678 MEMB     35       POPC     H5R      HAL2     0.900000E-01   1.00800           0
      4679 MEMB     35       POPC     H5S      HAL2     0.900000E-01   1.00800           0
      4680 MEMB     35       POPC     C26      CTL2    -0.180000       12.0110           0
      4681 MEMB     35       POPC     H6R      HAL2     0.900000E-01   1.00800           0
      4682 MEMB     35       POPC     H6S      HAL2     0.900000E-01   1.00800           0
      4683 MEMB     35       POPC     C27      CTL2    -0.180000       12.0110           0
      4684 MEMB     35       POPC     H7R      HAL2     0.900000E-01   1.00800           0
      4685 MEMB     35       POPC     H7S      HAL2     0.900000E-01   1.00800           0
      4686 MEMB     35       POPC     C28      CTL2    -0.180000       12.0110           0
      4687 MEMB     35       POPC     H8R      HAL2     0.900000E-01   1.00800           0
      4688 MEMB     35       POPC     H8S      HAL2     0.900000E-01   1.00800           0
      4689 MEMB     35       POPC     C29      CEL1    -0.150000       12.0110           0
      4690 MEMB     35       POPC     H91      HEL1     0.150000       1.00800           0
      4691 MEMB     35       POPC     C210     CEL1    -0.150000       12.0110           0
      4692 MEMB     35       POPC     H101     HEL1     0.150000       1.00800           0
      4693 MEMB     35       POPC     C211     CTL2    -0.180000       12.0110           0
      4694 MEMB     35       POPC     H11R     HAL2     0.900000E-01   1.00800           0
      4695 MEMB     35       POPC     H11S     HAL2     0.900000E-01   1.00800           0
      4696 MEMB     35       POPC     C212     CTL2    -0.180000       12.0110           0
      4697 MEMB     35       POPC     H12R     HAL2     0.900000E-01   1.00800           0
      4698 MEMB     35       POPC     H12S     HAL2     0.900000E-01   1.00800           0
      4699 MEMB     35       POPC     C213     CTL2    -0.180000       12.0110           0
      4700 MEMB     35       POPC     H13R     HAL2     0.900000E-01   1.00800           0
      4701 MEMB     35       POPC     H13S     HAL2     0.900000E-01   1.00800           0
      4702 MEMB     35       POPC     C214     CTL2    -0.180000       12.0110           0
      4703 MEMB     35       POPC     H14R     HAL2     0.900000E-01   1.00800           0
      4704 MEMB     35       POPC     H14S     HAL2     0.900000E-01   1.00800           0
      4705 MEMB     35       POPC     C215     CTL2    -0.180000       12.0110           0
      4706 MEMB     35       POPC     H15R     HAL2     0.900000E-01   1.00800           0
      4707 MEMB     35       POPC     H15S     HAL2     0.900000E-01   1.00800           0
      4708 MEMB     35       POPC     C216     CTL2    -0.180000       12.0110           0
      4709 MEMB     35       POPC     H16R     HAL2     0.900000E-01   1.00800           0
      4710 MEMB     35       POPC     H16S     HAL2     0.900000E-01   1.00800           0
      4711 MEMB     35       POPC     C217     CTL2    -0.180000       12.0110           0
      4712 MEMB     35       POPC     H17R     HAL2     0.900000E-01   1.00800           0
      4713 MEMB     35       POPC     H17S     HAL2     0.900000E-01   1.00800           0
      4714 MEMB     35       POPC     C218     CTL3    -0.270000       12.0110           0
      4715 MEMB     35       POPC     H18R     HAL3     0.900000E-01   1.00800           0
      4716 MEMB     35       POPC     H18S     HAL3     0.900000E-01   1.00800           0
      4717 MEMB     35       POPC     H18T     HAL3     0.900000E-01   1.00800           0
      4718 MEMB     35       POPC     C33      CTL2    -0.180000       12.0110           0
      4719 MEMB     35       POPC     H3X      HAL2     0.900000E-01   1.00800           0
      4720 MEMB     35       POPC     H3Y      HAL2     0.900000E-01   1.00800           0
      4721 MEMB     35       POPC     C34      CTL2    -0.180000       12.0110           0
      4722 MEMB     35       POPC     H4X      HAL2     0.900000E-01   1.00800           0
      4723 MEMB     35       POPC     H4Y      HAL2     0.900000E-01   1.00800           0
      4724 MEMB     35       POPC     C35      CTL2    -0.180000       12.0110           0
      4725 MEMB     35       POPC     H5X      HAL2     0.900000E-01   1.00800           0
      4726 MEMB     35       POPC     H5Y      HAL2     0.900000E-01   1.00800           0
      4727 MEMB     35       POPC     C36      CTL2    -0.180000       12.0110           0
      4728 MEMB     35       POPC     H6X      HAL2     0.900000E-01   1.00800           0
      4729 MEMB     35       POPC     H6Y      HAL2     0.900000E-01   1.00800           0
      4730 MEMB     35       POPC     C37      CTL2    -0.180000       12.0110           0
      4731 MEMB     35       POPC     H7X      HAL2     0.900000E-01   1.00800           0
      4732 MEMB     35       POPC     H7Y      HAL2     0.900000E-01   1.00800           0
      4733 MEMB     35       POPC     C38      CTL2    -0.180000       12.0110           0
      4734 MEMB     35       POPC     H8X      HAL2     0.900000E-01   1.00800           0
      4735 MEMB     35       POPC     H8Y      HAL2     0.900000E-01   1.00800           0
      4736 MEMB     35       POPC     C39      CTL2    -0.180000       12.0110           0
      4737 MEMB     35       POPC     H9X      HAL2     0.900000E-01   1.00800           0
      4738 MEMB     35       POPC     H9Y      HAL2     0.900000E-01   1.00800           0
      4739 MEMB     35       POPC     C310     CTL2    -0.180000       12.0110           0
      4740 MEMB     35       POPC     H10X     HAL2     0.900000E-01   1.00800           0
      4741 MEMB     35       POPC     H10Y     HAL2     0.900000E-01   1.00800           0
      4742 MEMB     35       POPC     C311     CTL2    -0.180000       12.0110           0
      4743 MEMB     35       POPC     H11X     HAL2     0.900000E-01   1.00800           0
      4744 MEMB     35       POPC     H11Y     HAL2     0.900000E-01   1.00800           0
      4745 MEMB     35       POPC     C312     CTL2    -0.180000       12.0110           0
      4746 MEMB     35       POPC     H12X     HAL2     0.900000E-01   1.00800           0
      4747 MEMB     35       POPC     H12Y     HAL2     0.900000E-01   1.00800           0
      4748 MEMB     35       POPC     C313     CTL2    -0.180000       12.0110           0
      4749 MEMB     35       POPC     H13X     HAL2     0.900000E-01   1.00800           0
      4750 MEMB     35       POPC     H13Y     HAL2     0.900000E-01   1.00800           0
      4751 MEMB     35       POPC     C314     CTL2    -0.180000       12.0110           0
      4752 MEMB     35       POPC     H14X     HAL2     0.900000E-01   1.00800           0
      4753 MEMB     35       POPC     H14Y     HAL2     0.900000E-01   1.00800           0
      4754 MEMB     35       POPC     C315     CTL2    -0.180000       12.0110           0
      4755 MEMB     35       POPC     H15X     HAL2     0.900000E-01   1.00800           0
      4756 MEMB     35       POPC     H15Y     HAL2     0.900000E-01   1.00800           0
      4757 MEMB     35       POPC     C316     CTL3    -0.270000       12.0110           0
      4758 MEMB     35       POPC     H16X     HAL3     0.900000E-01   1.00800           0
      4759 MEMB     35       POPC     H16Y     HAL3     0.900000E-01   1.00800           0
      4760 MEMB     35       POPC     H16Z     HAL3     0.900000E-01   1.00800           0
      4761 MEMB     36       POPC     N        NTL     -0.600000       14.0070           0
      4762 MEMB     36       POPC     C12      CTL2    -0.100000       12.0110           0
      4763 MEMB     36       POPC     H12A     HL       0.250000       1.00800           0
      4764 MEMB     36       POPC     H12B     HL       0.250000       1.00800           0
      4765 MEMB     36       POPC     C13      CTL5    -0.350000       12.0110           0
      4766 MEMB     36       POPC     H13A     HL       0.250000       1.00800           0
      4767 MEMB     36       POPC     H13B     HL       0.250000       1.00800           0
      4768 MEMB     36       POPC     H13C     HL       0.250000       1.00800           0
      4769 MEMB     36       POPC     C14      CTL5    -0.350000       12.0110           0
      4770 MEMB     36       POPC     H14A     HL       0.250000       1.00800           0
      4771 MEMB     36       POPC     H14B     HL       0.250000       1.00800           0
      4772 MEMB     36       POPC     H14C     HL       0.250000       1.00800           0
      4773 MEMB     36       POPC     C15      CTL5    -0.350000       12.0110           0
      4774 MEMB     36       POPC     H15A     HL       0.250000       1.00800           0
      4775 MEMB     36       POPC     H15B     HL       0.250000       1.00800           0
      4776 MEMB     36       POPC     H15C     HL       0.250000       1.00800           0
      4777 MEMB     36       POPC     C11      CTL2    -0.800000E-01   12.0110           0
      4778 MEMB     36       POPC     H11A     HAL2     0.900000E-01   1.00800           0
      4779 MEMB     36       POPC     H11B     HAL2     0.900000E-01   1.00800           0
      4780 MEMB     36       POPC     P        PL       1.500000       30.9740           0
      4781 MEMB     36       POPC     O13      O2L     -0.780000       15.9994           0
      4782 MEMB     36       POPC     O14      O2L     -0.780000       15.9994           0
      4783 MEMB     36       POPC     O12      OSLP    -0.570000       15.9994           0
      4784 MEMB     36       POPC     O11      OSLP    -0.570000       15.9994           0
      4785 MEMB     36       POPC     C1       CTL2    -0.800000E-01   12.0110           0
      4786 MEMB     36       POPC     HA       HAL2     0.900000E-01   1.00800           0
      4787 MEMB     36       POPC     HB       HAL2     0.900000E-01   1.00800           0
      4788 MEMB     36       POPC     C2       CTL1     0.170000       12.0110           0
      4789 MEMB     36       POPC     HS       HAL1     0.900000E-01   1.00800           0
      4790 MEMB     36       POPC     O21      OSL     -0.490000       15.9994           0
      4791 MEMB     36       POPC     C21      CL       0.900000       12.0110           0
      4792 MEMB     36       POPC     O22      OBL     -0.630000       15.9994           0
      4793 MEMB     36       POPC     C22      CTL2    -0.220000       12.0110           0
      4794 MEMB     36       POPC     H2R      HAL2     0.900000E-01   1.00800           0
      4795 MEMB     36       POPC     H2S      HAL2     0.900000E-01   1.00800           0
      4796 MEMB     36       POPC     C3       CTL2     0.800000E-01   12.0110           0
      4797 MEMB     36       POPC     HX       HAL2     0.900000E-01   1.00800           0
      4798 MEMB     36       POPC     HY       HAL2     0.900000E-01   1.00800           0
      4799 MEMB     36       POPC     O31      OSL     -0.490000       15.9994           0
      4800 MEMB     36       POPC     C31      CL       0.900000       12.0110           0
      4801 MEMB     36       POPC     O32      OBL     -0.630000       15.9994           0
      4802 MEMB     36       POPC     C32      CTL2    -0.220000       12.0110           0
      4803 MEMB     36       POPC     H2X      HAL2     0.900000E-01   1.00800           0
      4804 MEMB     36       POPC     H2Y      HAL2     0.900000E-01   1.00800           0
      4805 MEMB     36       POPC     C23      CTL2    -0.180000       12.0110           0
      4806 MEMB     36       POPC     H3R      HAL2     0.900000E-01   1.00800           0
      4807 MEMB     36       POPC     H3S      HAL2     0.900000E-01   1.00800           0
      4808 MEMB     36       POPC     C24      CTL2    -0.180000       12.0110           0
      4809 MEMB     36       POPC     H4R      HAL2     0.900000E-01   1.00800           0
      4810 MEMB     36       POPC     H4S      HAL2     0.900000E-01   1.00800           0
      4811 MEMB     36       POPC     C25      CTL2    -0.180000       12.0110           0
      4812 MEMB     36       POPC     H5R      HAL2     0.900000E-01   1.00800           0
      4813 MEMB     36       POPC     H5S      HAL2     0.900000E-01   1.00800           0
      4814 MEMB     36       POPC     C26      CTL2    -0.180000       12.0110           0
      4815 MEMB     36       POPC     H6R      HAL2     0.900000E-01   1.00800           0
      4816 MEMB     36       POPC     H6S      HAL2     0.900000E-01   1.00800           0
      4817 MEMB     36       POPC     C27      CTL2    -0.180000       12.0110           0
      4818 MEMB     36       POPC     H7R      HAL2     0.900000E-01   1.00800           0
      4819 MEMB     36       POPC     H7S      HAL2     0.900000E-01   1.00800           0
      4820 MEMB     36       POPC     C28      CTL2    -0.180000       12.0110           0
      4821 MEMB     36       POPC     H8R      HAL2     0.900000E-01   1.00800           0
      4822 MEMB     36       POPC     H8S      HAL2     0.900000E-01   1.00800           0
      4823 MEMB     36       POPC     C29      CEL1    -0.150000       12.0110           0
      4824 MEMB     36       POPC     H91      HEL1     0.150000       1.00800           0
      4825 MEMB     36       POPC     C210     CEL1    -0.150000       12.0110           0
      4826 MEMB     36       POPC     H101     HEL1     0.150000       1.00800           0
      4827 MEMB     36       POPC     C211     CTL2    -0.180000       12.0110           0
      4828 MEMB     36       POPC     H11R     HAL2     0.900000E-01   1.00800           0
      4829 MEMB     36       POPC     H11S     HAL2     0.900000E-01   1.00800           0
      4830 MEMB     36       POPC     C212     CTL2    -0.180000       12.0110           0
      4831 MEMB     36       POPC     H12R     HAL2     0.900000E-01   1.00800           0
      4832 MEMB     36       POPC     H12S     HAL2     0.900000E-01   1.00800           0
      4833 MEMB     36       POPC     C213     CTL2    -0.180000       12.0110           0
      4834 MEMB     36       POPC     H13R     HAL2     0.900000E-01   1.00800           0
      4835 MEMB     36       POPC     H13S     HAL2     0.900000E-01   1.00800           0
      4836 MEMB     36       POPC     C214     CTL2    -0.180000       12.0110           0
      4837 MEMB     36       POPC     H14R     HAL2     0.900000E-01   1.00800           0
      4838 MEMB     36       POPC     H14S     HAL2     0.900000E-01   1.00800           0
      4839 MEMB     36       POPC     C215     CTL2    -0.180000       12.0110           0
      4840 MEMB     36       POPC     H15R     HAL2     0.900000E-01   1.00800           0
      4841 MEMB     36       POPC     H15S     HAL2     0.900000E-01   1.00800           0
      4842 MEMB     36       POPC     C216     CTL2    -0.180000       12.0110           0
      4843 MEMB     36       POPC     H16R     HAL2     0.900000E-01   1.00800           0
      4844 MEMB     36       POPC     H16S     HAL2     0.900000E-01   1.00800           0
      4845 MEMB     36       POPC     C217     CTL2    -0.180000       12.0110           0
      4846 MEMB     36       POPC     H17R     HAL2     0.900000E-01   1.00800           0
      4847 MEMB     36       POPC     H17S     HAL2     0.900000E-01   1.00800           0
      4848 MEMB     36       POPC     C218     CTL3    -0.270000       12.0110           0
      4849 MEMB     36       POPC     H18R     HAL3     0.900000E-01   1.00800           0
      4850 MEMB     36       POPC     H18S     HAL3     0.900000E-01   1.00800           0
      4851 MEMB     36       POPC     H18T     HAL3     0.900000E-01   1.00800           0
      4852 MEMB     36       POPC     C33      CTL2    -0.180000       12.0110           0
      4853 MEMB     36       POPC     H3X      HAL2     0.900000E-01   1.00800           0
      4854 MEMB     36       POPC     H3Y      HAL2     0.900000E-01   1.00800           0
      4855 MEMB     36       POPC     C34      CTL2    -0.180000       12.0110           0
      4856 MEMB     36       POPC     H4X      HAL2     0.900000E-01   1.00800           0
      4857 MEMB     36       POPC     H4Y      HAL2     0.900000E-01   1.00800           0
      4858 MEMB     36       POPC     C35      CTL2    -0.180000       12.0110           0
      4859 MEMB     36       POPC     H5X      HAL2     0.900000E-01   1.00800           0
      4860 MEMB     36       POPC     H5Y      HAL2     0.900000E-01   1.00800           0
      4861 MEMB     36       POPC     C36      CTL2    -0.180000       12.0110           0
      4862 MEMB     36       POPC     H6X      HAL2     0.900000E-01   1.00800           0
      4863 MEMB     36       POPC     H6Y      HAL2     0.900000E-01   1.00800           0
      4864 MEMB     36       POPC     C37      CTL2    -0.180000       12.0110           0
      4865 MEMB     36       POPC     H7X      HAL2     0.900000E-01   1.00800           0
      4866 MEMB     36       POPC     H7Y      HAL2     0.900000E-01   1.00800           0
      4867 MEMB     36       POPC     C38      CTL2    -0.180000       12.0110           0
      4868 MEMB     36       POPC     H8X      HAL2     0.900000E-01   1.00800           0
      4869 MEMB     36       POPC     H8Y      HAL2     0.900000E-01   1.00800           0
      4870 MEMB     36       POPC     C39      CTL2    -0.180000       12.0110           0
      4871 MEMB     36       POPC     H9X      HAL2     0.900000E-01   1.00800           0
      4872 MEMB     36       POPC     H9Y      HAL2     0.900000E-01   1.00800           0
      4873 MEMB     36       POPC     C310     CTL2    -0.180000       12.0110           0
      4874 MEMB     36       POPC     H10X     HAL2     0.900000E-01   1.00800           0
      4875 MEMB     36       POPC     H10Y     HAL2     0.900000E-01   1.00800           0
      4876 MEMB     36       POPC     C311     CTL2    -0.180000       12.0110           0
      4877 MEMB     36       POPC     H11X     HAL2     0.900000E-01   1.00800           0
      4878 MEMB     36       POPC     H11Y     HAL2     0.900000E-01   1.00800           0
      4879 MEMB     36       POPC     C312     CTL2    -0.180000       12.0110           0
      4880 MEMB     36       POPC     H12X     HAL2     0.900000E-01   1.00800           0
      4881 MEMB     36       POPC     H12Y     HAL2     0.900000E-01   1.00800           0
      4882 MEMB     36       POPC     C313     CTL2    -0.180000       12.0110           0
      4883 MEMB     36       POPC     H13X     HAL2     0.900000E-01   1.00800           0
      4884 MEMB     36       POPC     H13Y     HAL2     0.900000E-01   1.00800           0
      4885 MEMB     36       POPC     C314     CTL2    -0.180000       12.0110           0
      4886 MEMB     36       POPC     H14X     HAL2     0.900000E-01   1.00800           0
      4887 MEMB     36       POPC     H14Y     HAL2     0.900000E-01   1.00800           0
      4888 MEMB     36       POPC     C315     CTL2    -0.180000       12.0110           0
      4889 MEMB     36       POPC     H15X     HAL2     0.900000E-01   1.00800           0
      4890 MEMB     36       POPC     H15Y     HAL2     0.900000E-01   1.00800           0
      4891 MEMB     36       POPC     C316     CTL3    -0.270000       12.0110           0
      4892 MEMB     36       POPC     H16X     HAL3     0.900000E-01   1.00800           0
      4893 MEMB     36       POPC     H16Y     HAL3     0.900000E-01   1.00800           0
      4894 MEMB     36       POPC     H16Z     HAL3     0.900000E-01   1.00800           0
      4895 MEMB     37       POPS     N        NH3L    -0.300000       14.0070           0
      4896 MEMB     37       POPS     HN1      HCL      0.330000       1.00800           0
      4897 MEMB     37       POPS     HN2      HCL      0.330000       1.00800           0
      4898 MEMB     37       POPS     HN3      HCL      0.330000       1.00800           0
      4899 MEMB     37       POPS     C12      CTL1     0.210000       12.0110           0
      4900 MEMB     37       POPS     H12A     HBL      0.100000       1.00800           0
      4901 MEMB     37       POPS     C13      CCL      0.340000       12.0110           0
      4902 MEMB     37       POPS     O13A     OCL     -0.670000       15.9994           0
      4903 MEMB     37       POPS     O13B     OCL     -0.670000       15.9994           0
      4904 MEMB     37       POPS     C11      CTL2    -0.800000E-01   12.0110           0
      4905 MEMB     37       POPS     H11A     HAL2     0.900000E-01   1.00800           0
      4906 MEMB     37       POPS     H11B     HAL2     0.900000E-01   1.00800           0
      4907 MEMB     37       POPS     P        PL       1.500000       30.9740           0
      4908 MEMB     37       POPS     O13      O2L     -0.780000       15.9994           0
      4909 MEMB     37       POPS     O14      O2L     -0.780000       15.9994           0
      4910 MEMB     37       POPS     O12      OSLP    -0.570000       15.9994           0
      4911 MEMB     37       POPS     O11      OSLP    -0.570000       15.9994           0
      4912 MEMB     37       POPS     C1       CTL2    -0.800000E-01   12.0110           0
      4913 MEMB     37       POPS     HA       HAL2     0.900000E-01   1.00800           0
      4914 MEMB     37       POPS     HB       HAL2     0.900000E-01   1.00800           0
      4915 MEMB     37       POPS     C2       CTL1     0.170000       12.0110           0
      4916 MEMB     37       POPS     HS       HAL1     0.900000E-01   1.00800           0
      4917 MEMB     37       POPS     O21      OSL     -0.490000       15.9994           0
      4918 MEMB     37       POPS     C21      CL       0.900000       12.0110           0
      4919 MEMB     37       POPS     O22      OBL     -0.630000       15.9994           0
      4920 MEMB     37       POPS     C22      CTL2    -0.220000       12.0110           0
      4921 MEMB     37       POPS     H2R      HAL2     0.900000E-01   1.00800           0
      4922 MEMB     37       POPS     H2S      HAL2     0.900000E-01   1.00800           0
      4923 MEMB     37       POPS     C3       CTL2     0.800000E-01   12.0110           0
      4924 MEMB     37       POPS     HX       HAL2     0.900000E-01   1.00800           0
      4925 MEMB     37       POPS     HY       HAL2     0.900000E-01   1.00800           0
      4926 MEMB     37       POPS     O31      OSL     -0.490000       15.9994           0
      4927 MEMB     37       POPS     C31      CL       0.900000       12.0110           0
      4928 MEMB     37       POPS     O32      OBL     -0.630000       15.9994           0
      4929 MEMB     37       POPS     C32      CTL2    -0.220000       12.0110           0
      4930 MEMB     37       POPS     H2X      HAL2     0.900000E-01   1.00800           0
      4931 MEMB     37       POPS     H2Y      HAL2     0.900000E-01   1.00800           0
      4932 MEMB     37       POPS     C23      CTL2    -0.180000       12.0110           0
      4933 MEMB     37       POPS     H3R      HAL2     0.900000E-01   1.00800           0
      4934 MEMB     37       POPS     H3S      HAL2     0.900000E-01   1.00800           0
      4935 MEMB     37       POPS     C24      CTL2    -0.180000       12.0110           0
      4936 MEMB     37       POPS     H4R      HAL2     0.900000E-01   1.00800           0
      4937 MEMB     37       POPS     H4S      HAL2     0.900000E-01   1.00800           0
      4938 MEMB     37       POPS     C25      CTL2    -0.180000       12.0110           0
      4939 MEMB     37       POPS     H5R      HAL2     0.900000E-01   1.00800           0
      4940 MEMB     37       POPS     H5S      HAL2     0.900000E-01   1.00800           0
      4941 MEMB     37       POPS     C26      CTL2    -0.180000       12.0110           0
      4942 MEMB     37       POPS     H6R      HAL2     0.900000E-01   1.00800           0
      4943 MEMB     37       POPS     H6S      HAL2     0.900000E-01   1.00800           0
      4944 MEMB     37       POPS     C27      CTL2    -0.180000       12.0110           0
      4945 MEMB     37       POPS     H7R      HAL2     0.900000E-01   1.00800           0
      4946 MEMB     37       POPS     H7S      HAL2     0.900000E-01   1.00800           0
      4947 MEMB     37       POPS     C28      CTL2    -0.180000       12.0110           0
      4948 MEMB     37       POPS     H8R      HAL2     0.900000E-01   1.00800           0
      4949 MEMB     37       POPS     H8S      HAL2     0.900000E-01   1.00800           0
      4950 MEMB     37       POPS     C29      CEL1    -0.150000       12.0110           0
      4951 MEMB     37       POPS     H91      HEL1     0.150000       1.00800           0
      4952 MEMB     37       POPS     C210     CEL1    -0.150000       12.0110           0
      4953 MEMB     37       POPS     H101     HEL1     0.150000       1.00800           0
      4954 MEMB     37       POPS     C211     CTL2    -0.180000       12.0110           0
      4955 MEMB     37       POPS     H11R     HAL2     0.900000E-01   1.00800           0
      4956 MEMB     37       POPS     H11S     HAL2     0.900000E-01   1.00800           0
      4957 MEMB     37       POPS     C212     CTL2    -0.180000       12.0110           0
      4958 MEMB     37       POPS     H12R     HAL2     0.900000E-01   1.00800           0
      4959 MEMB     37       POPS     H12S     HAL2     0.900000E-01   1.00800           0
      4960 MEMB     37       POPS     C213     CTL2    -0.180000       12.0110           0
      4961 MEMB     37       POPS     H13R     HAL2     0.900000E-01   1.00800           0
      4962 MEMB     37       POPS     H13S     HAL2     0.900000E-01   1.00800           0
      4963 MEMB     37       POPS     C214     CTL2    -0.180000       12.0110           0
      4964 MEMB     37       POPS     H14R     HAL2     0.900000E-01   1.00800           0
      4965 MEMB     37       POPS     H14S     HAL2     0.900000E-01   1.00800           0
      4966 MEMB     37       POPS     C215     CTL2    -0.180000       12.0110           0
      4967 MEMB     37       POPS     H15R     HAL2     0.900000E-01   1.00800           0
      4968 MEMB     37       POPS     H15S     HAL2     0.900000E-01   1.00800           0
      4969 MEMB     37       POPS     C216     CTL2    -0.180000       12.0110           0
      4970 MEMB     37       POPS     H16R     HAL2     0.900000E-01   1.00800           0
      4971 MEMB     37       POPS     H16S     HAL2     0.900000E-01   1.00800           0
      4972 MEMB     37       POPS     C217     CTL2    -0.180000       12.0110           0
      4973 MEMB     37       POPS     H17R     HAL2     0.900000E-01   1.00800           0
      4974 MEMB     37       POPS     H17S     HAL2     0.900000E-01   1.00800           0
      4975 MEMB     37       POPS     C218     CTL3    -0.270000       12.0110           0
      4976 MEMB     37       POPS     H18R     HAL3     0.900000E-01   1.00800           0
      4977 MEMB     37       POPS     H18S     HAL3     0.900000E-01   1.00800           0
      4978 MEMB     37       POPS     H18T     HAL3     0.900000E-01   1.00800           0
      4979 MEMB     37       POPS     C33      CTL2    -0.180000       12.0110           0
      4980 MEMB     37       POPS     H3X      HAL2     0.900000E-01   1.00800           0
      4981 MEMB     37       POPS     H3Y      HAL2     0.900000E-01   1.00800           0
      4982 MEMB     37       POPS     C34      CTL2    -0.180000       12.0110           0
      4983 MEMB     37       POPS     H4X      HAL2     0.900000E-01   1.00800           0
      4984 MEMB     37       POPS     H4Y      HAL2     0.900000E-01   1.00800           0
      4985 MEMB     37       POPS     C35      CTL2    -0.180000       12.0110           0
      4986 MEMB     37       POPS     H5X      HAL2     0.900000E-01   1.00800           0
      4987 MEMB     37       POPS     H5Y      HAL2     0.900000E-01   1.00800           0
      4988 MEMB     37       POPS     C36      CTL2    -0.180000       12.0110           0
      4989 MEMB     37       POPS     H6X      HAL2     0.900000E-01   1.00800           0
      4990 MEMB     37       POPS     H6Y      HAL2     0.900000E-01   1.00800           0
      4991 MEMB     37       POPS     C37      CTL2    -0.180000       12.0110           0
      4992 MEMB     37       POPS     H7X      HAL2     0.900000E-01   1.00800           0
      4993 MEMB     37       POPS     H7Y      HAL2     0.900000E-01   1.00800           0
      4994 MEMB     37       POPS     C38      CTL2    -0.180000       12.0110           0
      4995 MEMB     37       POPS     H8X      HAL2     0.900000E-01   1.00800           0
      4996 MEMB     37       POPS     H8Y      HAL2     0.900000E-01   1.00800           0
      4997 MEMB     37       POPS     C39      CTL2    -0.180000       12.0110           0
      4998 MEMB     37       POPS     H9X      HAL2     0.900000E-01   1.00800           0
      4999 MEMB     37       POPS     H9Y      HAL2     0.900000E-01   1.00800           0
      5000 MEMB     37       POPS     C310     CTL2    -0.180000       12.0110           0
      5001 MEMB     37       POPS     H10X     HAL2     0.900000E-01   1.00800           0
      5002 MEMB     37       POPS     H10Y     HAL2     0.900000E-01   1.00800           0
      5003 MEMB     37       POPS     C311     CTL2    -0.180000       12.0110           0
      5004 MEMB     37       POPS     H11X     HAL2     0.900000E-01   1.00800           0
      5005 MEMB     37       POPS     H11Y     HAL2     0.900000E-01   1.00800           0
      5006 MEMB     37       POPS     C312     CTL2    -0.180000       12.0110           0
      5007 MEMB     37       POPS     H12X     HAL2     0.900000E-01   1.00800           0
      5008 MEMB     37       POPS     H12Y     HAL2     0.900000E-01   1.00800           0
      5009 MEMB     37       POPS     C313     CTL2    -0.180000       12.0110           0
      5010 MEMB     37       POPS     H13X     HAL2     0.900000E-01   1.00800           0
      5011 MEMB     37       POPS     H13Y     HAL2     0.900000E-01   1.00800           0
      5012 MEMB     37       POPS     C314     CTL2    -0.180000       12.0110           0
      5013 MEMB     37       POPS     H14X     HAL2     0.900000E-01   1.00800           0
      5014 MEMB     37       POPS     H14Y     HAL2     0.900000E-01   1.00800           0
      5015 MEMB     37       POPS     C315     CTL2    -0.180000       12.0110           0
      5016 MEMB     37       POPS     H15X     HAL2     0.900000E-01   1.00800           0
      5017 MEMB     37       POPS     H15Y     HAL2     0.900000E-01   1.00800           0
      5018 MEMB     37       POPS     C316     CTL3    -0.270000       12.0110           0
      5019 MEMB     37       POPS     H16X     HAL3     0.900000E-01   1.00800           0
      5020 MEMB     37       POPS     H16Y     HAL3     0.900000E-01   1.00800           0
      5021 MEMB     37       POPS     H16Z     HAL3     0.900000E-01   1.00800           0
      5022 MEMB     38       POPC     N        NTL     -0.600000       14.0070           0
      5023 MEMB     38       POPC     C12      CTL2    -0.100000       12.0110           0
      5024 MEMB     38       POPC     H12A     HL       0.250000       1.00800           0
      5025 MEMB     38       POPC     H12B     HL       0.250000       1.00800           0
      5026 MEMB     38       POPC     C13      CTL5    -0.350000       12.0110           0
      5027 MEMB     38       POPC     H13A     HL       0.250000       1.00800           0
      5028 MEMB     38       POPC     H13B     HL       0.250000       1.00800           0
      5029 MEMB     38       POPC     H13C     HL       0.250000       1.00800           0
      5030 MEMB     38       POPC     C14      CTL5    -0.350000       12.0110           0
      5031 MEMB     38       POPC     H14A     HL       0.250000       1.00800           0
      5032 MEMB     38       POPC     H14B     HL       0.250000       1.00800           0
      5033 MEMB     38       POPC     H14C     HL       0.250000       1.00800           0
      5034 MEMB     38       POPC     C15      CTL5    -0.350000       12.0110           0
      5035 MEMB     38       POPC     H15A     HL       0.250000       1.00800           0
      5036 MEMB     38       POPC     H15B     HL       0.250000       1.00800           0
      5037 MEMB     38       POPC     H15C     HL       0.250000       1.00800           0
      5038 MEMB     38       POPC     C11      CTL2    -0.800000E-01   12.0110           0
      5039 MEMB     38       POPC     H11A     HAL2     0.900000E-01   1.00800           0
      5040 MEMB     38       POPC     H11B     HAL2     0.900000E-01   1.00800           0
      5041 MEMB     38       POPC     P        PL       1.500000       30.9740           0
      5042 MEMB     38       POPC     O13      O2L     -0.780000       15.9994           0
      5043 MEMB     38       POPC     O14      O2L     -0.780000       15.9994           0
      5044 MEMB     38       POPC     O12      OSLP    -0.570000       15.9994           0
      5045 MEMB     38       POPC     O11      OSLP    -0.570000       15.9994           0
      5046 MEMB     38       POPC     C1       CTL2    -0.800000E-01   12.0110           0
      5047 MEMB     38       POPC     HA       HAL2     0.900000E-01   1.00800           0
      5048 MEMB     38       POPC     HB       HAL2     0.900000E-01   1.00800           0
      5049 MEMB     38       POPC     C2       CTL1     0.170000       12.0110           0
      5050 MEMB     38       POPC     HS       HAL1     0.900000E-01   1.00800           0
      5051 MEMB     38       POPC     O21      OSL     -0.490000       15.9994           0
      5052 MEMB     38       POPC     C21      CL       0.900000       12.0110           0
      5053 MEMB     38       POPC     O22      OBL     -0.630000       15.9994           0
      5054 MEMB     38       POPC     C22      CTL2    -0.220000       12.0110           0
      5055 MEMB     38       POPC     H2R      HAL2     0.900000E-01   1.00800           0
      5056 MEMB     38       POPC     H2S      HAL2     0.900000E-01   1.00800           0
      5057 MEMB     38       POPC     C3       CTL2     0.800000E-01   12.0110           0
      5058 MEMB     38       POPC     HX       HAL2     0.900000E-01   1.00800           0
      5059 MEMB     38       POPC     HY       HAL2     0.900000E-01   1.00800           0
      5060 MEMB     38       POPC     O31      OSL     -0.490000       15.9994           0
      5061 MEMB     38       POPC     C31      CL       0.900000       12.0110           0
      5062 MEMB     38       POPC     O32      OBL     -0.630000       15.9994           0
      5063 MEMB     38       POPC     C32      CTL2    -0.220000       12.0110           0
      5064 MEMB     38       POPC     H2X      HAL2     0.900000E-01   1.00800           0
      5065 MEMB     38       POPC     H2Y      HAL2     0.900000E-01   1.00800           0
      5066 MEMB     38       POPC     C23      CTL2    -0.180000       12.0110           0
      5067 MEMB     38       POPC     H3R      HAL2     0.900000E-01   1.00800           0
      5068 MEMB     38       POPC     H3S      HAL2     0.900000E-01   1.00800           0
      5069 MEMB     38       POPC     C24      CTL2    -0.180000       12.0110           0
      5070 MEMB     38       POPC     H4R      HAL2     0.900000E-01   1.00800           0
      5071 MEMB     38       POPC     H4S      HAL2     0.900000E-01   1.00800           0
      5072 MEMB     38       POPC     C25      CTL2    -0.180000       12.0110           0
      5073 MEMB     38       POPC     H5R      HAL2     0.900000E-01   1.00800           0
      5074 MEMB     38       POPC     H5S      HAL2     0.900000E-01   1.00800           0
      5075 MEMB     38       POPC     C26      CTL2    -0.180000       12.0110           0
      5076 MEMB     38       POPC     H6R      HAL2     0.900000E-01   1.00800           0
      5077 MEMB     38       POPC     H6S      HAL2     0.900000E-01   1.00800           0
      5078 MEMB     38       POPC     C27      CTL2    -0.180000       12.0110           0
      5079 MEMB     38       POPC     H7R      HAL2     0.900000E-01   1.00800           0
      5080 MEMB     38       POPC     H7S      HAL2     0.900000E-01   1.00800           0
      5081 MEMB     38       POPC     C28      CTL2    -0.180000       12.0110           0
      5082 MEMB     38       POPC     H8R      HAL2     0.900000E-01   1.00800           0
      5083 MEMB     38       POPC     H8S      HAL2     0.900000E-01   1.00800           0
      5084 MEMB     38       POPC     C29      CEL1    -0.150000       12.0110           0
      5085 MEMB     38       POPC     H91      HEL1     0.150000       1.00800           0
      5086 MEMB     38       POPC     C210     CEL1    -0.150000       12.0110           0
      5087 MEMB     38       POPC     H101     HEL1     0.150000       1.00800           0
      5088 MEMB     38       POPC     C211     CTL2    -0.180000       12.0110           0
      5089 MEMB     38       POPC     H11R     HAL2     0.900000E-01   1.00800           0
      5090 MEMB     38       POPC     H11S     HAL2     0.900000E-01   1.00800           0
      5091 MEMB     38       POPC     C212     CTL2    -0.180000       12.0110           0
      5092 MEMB     38       POPC     H12R     HAL2     0.900000E-01   1.00800           0
      5093 MEMB     38       POPC     H12S     HAL2     0.900000E-01   1.00800           0
      5094 MEMB     38       POPC     C213     CTL2    -0.180000       12.0110           0
      5095 MEMB     38       POPC     H13R     HAL2     0.900000E-01   1.00800           0
      5096 MEMB     38       POPC     H13S     HAL2     0.900000E-01   1.00800           0
      5097 MEMB     38       POPC     C214     CTL2    -0.180000       12.0110           0
      5098 MEMB     38       POPC     H14R     HAL2     0.900000E-01   1.00800           0
      5099 MEMB     38       POPC     H14S     HAL2     0.900000E-01   1.00800           0
      5100 MEMB     38       POPC     C215     CTL2    -0.180000       12.0110           0
      5101 MEMB     38       POPC     H15R     HAL2     0.900000E-01   1.00800           0
      5102 MEMB     38       POPC     H15S     HAL2     0.900000E-01   1.00800           0
      5103 MEMB     38       POPC     C216     CTL2    -0.180000       12.0110           0
      5104 MEMB     38       POPC     H16R     HAL2     0.900000E-01   1.00800           0
      5105 MEMB     38       POPC     H16S     HAL2     0.900000E-01   1.00800           0
      5106 MEMB     38       POPC     C217     CTL2    -0.180000       12.0110           0
      5107 MEMB     38       POPC     H17R     HAL2     0.900000E-01   1.00800           0
      5108 MEMB     38       POPC     H17S     HAL2     0.900000E-01   1.00800           0
      5109 MEMB     38       POPC     C218     CTL3    -0.270000       12.0110           0
      5110 MEMB     38       POPC     H18R     HAL3     0.900000E-01   1.00800           0
      5111 MEMB     38       POPC     H18S     HAL3     0.900000E-01   1.00800           0
      5112 MEMB     38       POPC     H18T     HAL3     0.900000E-01   1.00800           0
      5113 MEMB     38       POPC     C33      CTL2    -0.180000       12.0110           0
      5114 MEMB     38       POPC     H3X      HAL2     0.900000E-01   1.00800           0
      5115 MEMB     38       POPC     H3Y      HAL2     0.900000E-01   1.00800           0
      5116 MEMB     38       POPC     C34      CTL2    -0.180000       12.0110           0
      5117 MEMB     38       POPC     H4X      HAL2     0.900000E-01   1.00800           0
      5118 MEMB     38       POPC     H4Y      HAL2     0.900000E-01   1.00800           0
      5119 MEMB     38       POPC     C35      CTL2    -0.180000       12.0110           0
      5120 MEMB     38       POPC     H5X      HAL2     0.900000E-01   1.00800           0
      5121 MEMB     38       POPC     H5Y      HAL2     0.900000E-01   1.00800           0
      5122 MEMB     38       POPC     C36      CTL2    -0.180000       12.0110           0
      5123 MEMB     38       POPC     H6X      HAL2     0.900000E-01   1.00800           0
      5124 MEMB     38       POPC     H6Y      HAL2     0.900000E-01   1.00800           0
      5125 MEMB     38       POPC     C37      CTL2    -0.180000       12.0110           0
      5126 MEMB     38       POPC     H7X      HAL2     0.900000E-01   1.00800           0
      5127 MEMB     38       POPC     H7Y      HAL2     0.900000E-01   1.00800           0
      5128 MEMB     38       POPC     C38      CTL2    -0.180000       12.0110           0
      5129 MEMB     38       POPC     H8X      HAL2     0.900000E-01   1.00800           0
      5130 MEMB     38       POPC     H8Y      HAL2     0.900000E-01   1.00800           0
      5131 MEMB     38       POPC     C39      CTL2    -0.180000       12.0110           0
      5132 MEMB     38       POPC     H9X      HAL2     0.900000E-01   1.00800           0
      5133 MEMB     38       POPC     H9Y      HAL2     0.900000E-01   1.00800           0
      5134 MEMB     38       POPC     C310     CTL2    -0.180000       12.0110           0
      5135 MEMB     38       POPC     H10X     HAL2     0.900000E-01   1.00800           0
      5136 MEMB     38       POPC     H10Y     HAL2     0.900000E-01   1.00800           0
      5137 MEMB     38       POPC     C311     CTL2    -0.180000       12.0110           0
      5138 MEMB     38       POPC     H11X     HAL2     0.900000E-01   1.00800           0
      5139 MEMB     38       POPC     H11Y     HAL2     0.900000E-01   1.00800           0
      5140 MEMB     38       POPC     C312     CTL2    -0.180000       12.0110           0
      5141 MEMB     38       POPC     H12X     HAL2     0.900000E-01   1.00800           0
      5142 MEMB     38       POPC     H12Y     HAL2     0.900000E-01   1.00800           0
      5143 MEMB     38       POPC     C313     CTL2    -0.180000       12.0110           0
      5144 MEMB     38       POPC     H13X     HAL2     0.900000E-01   1.00800           0
      5145 MEMB     38       POPC     H13Y     HAL2     0.900000E-01   1.00800           0
      5146 MEMB     38       POPC     C314     CTL2    -0.180000       12.0110           0
      5147 MEMB     38       POPC     H14X     HAL2     0.900000E-01   1.00800           0
      5148 MEMB     38       POPC     H14Y     HAL2     0.900000E-01   1.00800           0
      5149 MEMB     38       POPC     C315     CTL2    -0.180000       12.0110           0
      5150 MEMB     38       POPC     H15X     HAL2     0.900000E-01   1.00800           0
      5151 MEMB     38       POPC     H15Y     HAL2     0.900000E-01   1.00800           0
      5152 MEMB     38       POPC     C316     CTL3    -0.270000       12.0110           0
      5153 MEMB     38       POPC     H16X     HAL3     0.900000E-01   1.00800           0
      5154 MEMB     38       POPC     H16Y     HAL3     0.900000E-01   1.00800           0
      5155 MEMB     38       POPC     H16Z     HAL3     0.900000E-01   1.00800           0
      5156 MEMB     39       POPC     N        NTL     -0.600000       14.0070           0
      5157 MEMB     39       POPC     C12      CTL2    -0.100000       12.0110           0
      5158 MEMB     39       POPC     H12A     HL       0.250000       1.00800           0
      5159 MEMB     39       POPC     H12B     HL       0.250000       1.00800           0
      5160 MEMB     39       POPC     C13      CTL5    -0.350000       12.0110           0
      5161 MEMB     39       POPC     H13A     HL       0.250000       1.00800           0
      5162 MEMB     39       POPC     H13B     HL       0.250000       1.00800           0
      5163 MEMB     39       POPC     H13C     HL       0.250000       1.00800           0
      5164 MEMB     39       POPC     C14      CTL5    -0.350000       12.0110           0
      5165 MEMB     39       POPC     H14A     HL       0.250000       1.00800           0
      5166 MEMB     39       POPC     H14B     HL       0.250000       1.00800           0
      5167 MEMB     39       POPC     H14C     HL       0.250000       1.00800           0
      5168 MEMB     39       POPC     C15      CTL5    -0.350000       12.0110           0
      5169 MEMB     39       POPC     H15A     HL       0.250000       1.00800           0
      5170 MEMB     39       POPC     H15B     HL       0.250000       1.00800           0
      5171 MEMB     39       POPC     H15C     HL       0.250000       1.00800           0
      5172 MEMB     39       POPC     C11      CTL2    -0.800000E-01   12.0110           0
      5173 MEMB     39       POPC     H11A     HAL2     0.900000E-01   1.00800           0
      5174 MEMB     39       POPC     H11B     HAL2     0.900000E-01   1.00800           0
      5175 MEMB     39       POPC     P        PL       1.500000       30.9740           0
      5176 MEMB     39       POPC     O13      O2L     -0.780000       15.9994           0
      5177 MEMB     39       POPC     O14      O2L     -0.780000       15.9994           0
      5178 MEMB     39       POPC     O12      OSLP    -0.570000       15.9994           0
      5179 MEMB     39       POPC     O11      OSLP    -0.570000       15.9994           0
      5180 MEMB     39       POPC     C1       CTL2    -0.800000E-01   12.0110           0
      5181 MEMB     39       POPC     HA       HAL2     0.900000E-01   1.00800           0
      5182 MEMB     39       POPC     HB       HAL2     0.900000E-01   1.00800           0
      5183 MEMB     39       POPC     C2       CTL1     0.170000       12.0110           0
      5184 MEMB     39       POPC     HS       HAL1     0.900000E-01   1.00800           0
      5185 MEMB     39       POPC     O21      OSL     -0.490000       15.9994           0
      5186 MEMB     39       POPC     C21      CL       0.900000       12.0110           0
      5187 MEMB     39       POPC     O22      OBL     -0.630000       15.9994           0
      5188 MEMB     39       POPC     C22      CTL2    -0.220000       12.0110           0
      5189 MEMB     39       POPC     H2R      HAL2     0.900000E-01   1.00800           0
      5190 MEMB     39       POPC     H2S      HAL2     0.900000E-01   1.00800           0
      5191 MEMB     39       POPC     C3       CTL2     0.800000E-01   12.0110           0
      5192 MEMB     39       POPC     HX       HAL2     0.900000E-01   1.00800           0
      5193 MEMB     39       POPC     HY       HAL2     0.900000E-01   1.00800           0
      5194 MEMB     39       POPC     O31      OSL     -0.490000       15.9994           0
      5195 MEMB     39       POPC     C31      CL       0.900000       12.0110           0
      5196 MEMB     39       POPC     O32      OBL     -0.630000       15.9994           0
      5197 MEMB     39       POPC     C32      CTL2    -0.220000       12.0110           0
      5198 MEMB     39       POPC     H2X      HAL2     0.900000E-01   1.00800           0
      5199 MEMB     39       POPC     H2Y      HAL2     0.900000E-01   1.00800           0
      5200 MEMB     39       POPC     C23      CTL2    -0.180000       12.0110           0
      5201 MEMB     39       POPC     H3R      HAL2     0.900000E-01   1.00800           0
      5202 MEMB     39       POPC     H3S      HAL2     0.900000E-01   1.00800           0
      5203 MEMB     39       POPC     C24      CTL2    -0.180000       12.0110           0
      5204 MEMB     39       POPC     H4R      HAL2     0.900000E-01   1.00800           0
      5205 MEMB     39       POPC     H4S      HAL2     0.900000E-01   1.00800           0
      5206 MEMB     39       POPC     C25      CTL2    -0.180000       12.0110           0
      5207 MEMB     39       POPC     H5R      HAL2     0.900000E-01   1.00800           0
      5208 MEMB     39       POPC     H5S      HAL2     0.900000E-01   1.00800           0
      5209 MEMB     39       POPC     C26      CTL2    -0.180000       12.0110           0
      5210 MEMB     39       POPC     H6R      HAL2     0.900000E-01   1.00800           0
      5211 MEMB     39       POPC     H6S      HAL2     0.900000E-01   1.00800           0
      5212 MEMB     39       POPC     C27      CTL2    -0.180000       12.0110           0
      5213 MEMB     39       POPC     H7R      HAL2     0.900000E-01   1.00800           0
      5214 MEMB     39       POPC     H7S      HAL2     0.900000E-01   1.00800           0
      5215 MEMB     39       POPC     C28      CTL2    -0.180000       12.0110           0
      5216 MEMB     39       POPC     H8R      HAL2     0.900000E-01   1.00800           0
      5217 MEMB     39       POPC     H8S      HAL2     0.900000E-01   1.00800           0
      5218 MEMB     39       POPC     C29      CEL1    -0.150000       12.0110           0
      5219 MEMB     39       POPC     H91      HEL1     0.150000       1.00800           0
      5220 MEMB     39       POPC     C210     CEL1    -0.150000       12.0110           0
      5221 MEMB     39       POPC     H101     HEL1     0.150000       1.00800           0
      5222 MEMB     39       POPC     C211     CTL2    -0.180000       12.0110           0
      5223 MEMB     39       POPC     H11R     HAL2     0.900000E-01   1.00800           0
      5224 MEMB     39       POPC     H11S     HAL2     0.900000E-01   1.00800           0
      5225 MEMB     39       POPC     C212     CTL2    -0.180000       12.0110           0
      5226 MEMB     39       POPC     H12R     HAL2     0.900000E-01   1.00800           0
      5227 MEMB     39       POPC     H12S     HAL2     0.900000E-01   1.00800           0
      5228 MEMB     39       POPC     C213     CTL2    -0.180000       12.0110           0
      5229 MEMB     39       POPC     H13R     HAL2     0.900000E-01   1.00800           0
      5230 MEMB     39       POPC     H13S     HAL2     0.900000E-01   1.00800           0
      5231 MEMB     39       POPC     C214     CTL2    -0.180000       12.0110           0
      5232 MEMB     39       POPC     H14R     HAL2     0.900000E-01   1.00800           0
      5233 MEMB     39       POPC     H14S     HAL2     0.900000E-01   1.00800           0
      5234 MEMB     39       POPC     C215     CTL2    -0.180000       12.0110           0
      5235 MEMB     39       POPC     H15R     HAL2     0.900000E-01   1.00800           0
      5236 MEMB     39       POPC     H15S     HAL2     0.900000E-01   1.00800           0
      5237 MEMB     39       POPC     C216     CTL2    -0.180000       12.0110           0
      5238 MEMB     39       POPC     H16R     HAL2     0.900000E-01   1.00800           0
      5239 MEMB     39       POPC     H16S     HAL2     0.900000E-01   1.00800           0
      5240 MEMB     39       POPC     C217     CTL2    -0.180000       12.0110           0
      5241 MEMB     39       POPC     H17R     HAL2     0.900000E-01   1.00800           0
      5242 MEMB     39       POPC     H17S     HAL2     0.900000E-01   1.00800           0
      5243 MEMB     39       POPC     C218     CTL3    -0.270000       12.0110           0
      5244 MEMB     39       POPC     H18R     HAL3     0.900000E-01   1.00800           0
      5245 MEMB     39       POPC     H18S     HAL3     0.900000E-01   1.00800           0
      5246 MEMB     39       POPC     H18T     HAL3     0.900000E-01   1.00800           0
      5247 MEMB     39       POPC     C33      CTL2    -0.180000       12.0110           0
      5248 MEMB     39       POPC     H3X      HAL2     0.900000E-01   1.00800           0
      5249 MEMB     39       POPC     H3Y      HAL2     0.900000E-01   1.00800           0
      5250 MEMB     39       POPC     C34      CTL2    -0.180000       12.0110           0
      5251 MEMB     39       POPC     H4X      HAL2     0.900000E-01   1.00800           0
      5252 MEMB     39       POPC     H4Y      HAL2     0.900000E-01   1.00800           0
      5253 MEMB     39       POPC     C35      CTL2    -0.180000       12.0110           0
      5254 MEMB     39       POPC     H5X      HAL2     0.900000E-01   1.00800           0
      5255 MEMB     39       POPC     H5Y      HAL2     0.900000E-01   1.00800           0
      5256 MEMB     39       POPC     C36      CTL2    -0.180000       12.0110           0
      5257 MEMB     39       POPC     H6X      HAL2     0.900000E-01   1.00800           0
      5258 MEMB     39       POPC     H6Y      HAL2     0.900000E-01   1.00800           0
      5259 MEMB     39       POPC     C37      CTL2    -0.180000       12.0110           0
      5260 MEMB     39       POPC     H7X      HAL2     0.900000E-01   1.00800           0
      5261 MEMB     39       POPC     H7Y      HAL2     0.900000E-01   1.00800           0
      5262 MEMB     39       POPC     C38      CTL2    -0.180000       12.0110           0
      5263 MEMB     39       POPC     H8X      HAL2     0.900000E-01   1.00800           0
      5264 MEMB     39       POPC     H8Y      HAL2     0.900000E-01   1.00800           0
      5265 MEMB     39       POPC     C39      CTL2    -0.180000       12.0110           0
      5266 MEMB     39       POPC     H9X      HAL2     0.900000E-01   1.00800           0
      5267 MEMB     39       POPC     H9Y      HAL2     0.900000E-01   1.00800           0
      5268 MEMB     39       POPC     C310     CTL2    -0.180000       12.0110           0
      5269 MEMB     39       POPC     H10X     HAL2     0.900000E-01   1.00800           0
      5270 MEMB     39       POPC     H10Y     HAL2     0.900000E-01   1.00800           0
      5271 MEMB     39       POPC     C311     CTL2    -0.180000       12.0110           0
      5272 MEMB     39       POPC     H11X     HAL2     0.900000E-01   1.00800           0
      5273 MEMB     39       POPC     H11Y     HAL2     0.900000E-01   1.00800           0
      5274 MEMB     39       POPC     C312     CTL2    -0.180000       12.0110           0
      5275 MEMB     39       POPC     H12X     HAL2     0.900000E-01   1.00800           0
      5276 MEMB     39       POPC     H12Y     HAL2     0.900000E-01   1.00800           0
      5277 MEMB     39       POPC     C313     CTL2    -0.180000       12.0110           0
      5278 MEMB     39       POPC     H13X     HAL2     0.900000E-01   1.00800           0
      5279 MEMB     39       POPC     H13Y     HAL2     0.900000E-01   1.00800           0
      5280 MEMB     39       POPC     C314     CTL2    -0.180000       12.0110           0
      5281 MEMB     39       POPC     H14X     HAL2     0.900000E-01   1.00800           0
      5282 MEMB     39       POPC     H14Y     HAL2     0.900000E-01   1.00800           0
      5283 MEMB     39       POPC     C315     CTL2    -0.180000       12.0110           0
      5284 MEMB     39       POPC     H15X     HAL2     0.900000E-01   1.00800           0
      5285 MEMB     39       POPC     H15Y     HAL2     0.900000E-01   1.00800           0
      5286 MEMB     39       POPC     C316     CTL3    -0.270000       12.0110           0
      5287 MEMB     39       POPC     H16X     HAL3     0.900000E-01   1.00800           0
      5288 MEMB     39       POPC     H16Y     HAL3     0.900000E-01   1.00800           0
      5289 MEMB     39       POPC     H16Z     HAL3     0.900000E-01   1.00800           0
      5290 MEMB     40       POPC     N        NTL     -0.600000       14.0070           0
      5291 MEMB     40       POPC     C12      CTL2    -0.100000       12.0110           0
      5292 MEMB     40       POPC     H12A     HL       0.250000       1.00800           0
      5293 MEMB     40       POPC     H12B     HL       0.250000       1.00800           0
      5294 MEMB     40       POPC     C13      CTL5    -0.350000       12.0110           0
      5295 MEMB     40       POPC     H13A     HL       0.250000       1.00800           0
      5296 MEMB     40       POPC     H13B     HL       0.250000       1.00800           0
      5297 MEMB     40       POPC     H13C     HL       0.250000       1.00800           0
      5298 MEMB     40       POPC     C14      CTL5    -0.350000       12.0110           0
      5299 MEMB     40       POPC     H14A     HL       0.250000       1.00800           0
      5300 MEMB     40       POPC     H14B     HL       0.250000       1.00800           0
      5301 MEMB     40       POPC     H14C     HL       0.250000       1.00800           0
      5302 MEMB     40       POPC     C15      CTL5    -0.350000       12.0110           0
      5303 MEMB     40       POPC     H15A     HL       0.250000       1.00800           0
      5304 MEMB     40       POPC     H15B     HL       0.250000       1.00800           0
      5305 MEMB     40       POPC     H15C     HL       0.250000       1.00800           0
      5306 MEMB     40       POPC     C11      CTL2    -0.800000E-01   12.0110           0
      5307 MEMB     40       POPC     H11A     HAL2     0.900000E-01   1.00800           0
      5308 MEMB     40       POPC     H11B     HAL2     0.900000E-01   1.00800           0
      5309 MEMB     40       POPC     P        PL       1.500000       30.9740           0
      5310 MEMB     40       POPC     O13      O2L     -0.780000       15.9994           0
      5311 MEMB     40       POPC     O14      O2L     -0.780000       15.9994           0
      5312 MEMB     40       POPC     O12      OSLP    -0.570000       15.9994           0
      5313 MEMB     40       POPC     O11      OSLP    -0.570000       15.9994           0
      5314 MEMB     40       POPC     C1       CTL2    -0.800000E-01   12.0110           0
      5315 MEMB     40       POPC     HA       HAL2     0.900000E-01   1.00800           0
      5316 MEMB     40       POPC     HB       HAL2     0.900000E-01   1.00800           0
      5317 MEMB     40       POPC     C2       CTL1     0.170000       12.0110           0
      5318 MEMB     40       POPC     HS       HAL1     0.900000E-01   1.00800           0
      5319 MEMB     40       POPC     O21      OSL     -0.490000       15.9994           0
      5320 MEMB     40       POPC     C21      CL       0.900000       12.0110           0
      5321 MEMB     40       POPC     O22      OBL     -0.630000       15.9994           0
      5322 MEMB     40       POPC     C22      CTL2    -0.220000       12.0110           0
      5323 MEMB     40       POPC     H2R      HAL2     0.900000E-01   1.00800           0
      5324 MEMB     40       POPC     H2S      HAL2     0.900000E-01   1.00800           0
      5325 MEMB     40       POPC     C3       CTL2     0.800000E-01   12.0110           0
      5326 MEMB     40       POPC     HX       HAL2     0.900000E-01   1.00800           0
      5327 MEMB     40       POPC     HY       HAL2     0.900000E-01   1.00800           0
      5328 MEMB     40       POPC     O31      OSL     -0.490000       15.9994           0
      5329 MEMB     40       POPC     C31      CL       0.900000       12.0110           0
      5330 MEMB     40       POPC     O32      OBL     -0.630000       15.9994           0
      5331 MEMB     40       POPC     C32      CTL2    -0.220000       12.0110           0
      5332 MEMB     40       POPC     H2X      HAL2     0.900000E-01   1.00800           0
      5333 MEMB     40       POPC     H2Y      HAL2     0.900000E-01   1.00800           0
      5334 MEMB     40       POPC     C23      CTL2    -0.180000       12.0110           0
      5335 MEMB     40       POPC     H3R      HAL2     0.900000E-01   1.00800           0
      5336 MEMB     40       POPC     H3S      HAL2     0.900000E-01   1.00800           0
      5337 MEMB     40       POPC     C24      CTL2    -0.180000       12.0110           0
      5338 MEMB     40       POPC     H4R      HAL2     0.900000E-01   1.00800           0
      5339 MEMB     40       POPC     H4S      HAL2     0.900000E-01   1.00800           0
      5340 MEMB     40       POPC     C25      CTL2    -0.180000       12.0110           0
      5341 MEMB     40       POPC     H5R      HAL2     0.900000E-01   1.00800           0
      5342 MEMB     40       POPC     H5S      HAL2     0.900000E-01   1.00800           0
      5343 MEMB     40       POPC     C26      CTL2    -0.180000       12.0110           0
      5344 MEMB     40       POPC     H6R      HAL2     0.900000E-01   1.00800           0
      5345 MEMB     40       POPC     H6S      HAL2     0.900000E-01   1.00800           0
      5346 MEMB     40       POPC     C27      CTL2    -0.180000       12.0110           0
      5347 MEMB     40       POPC     H7R      HAL2     0.900000E-01   1.00800           0
      5348 MEMB     40       POPC     H7S      HAL2     0.900000E-01   1.00800           0
      5349 MEMB     40       POPC     C28      CTL2    -0.180000       12.0110           0
      5350 MEMB     40       POPC     H8R      HAL2     0.900000E-01   1.00800           0
      5351 MEMB     40       POPC     H8S      HAL2     0.900000E-01   1.00800           0
      5352 MEMB     40       POPC     C29      CEL1    -0.150000       12.0110           0
      5353 MEMB     40       POPC     H91      HEL1     0.150000       1.00800           0
      5354 MEMB     40       POPC     C210     CEL1    -0.150000       12.0110           0
      5355 MEMB     40       POPC     H101     HEL1     0.150000       1.00800           0
      5356 MEMB     40       POPC     C211     CTL2    -0.180000       12.0110           0
      5357 MEMB     40       POPC     H11R     HAL2     0.900000E-01   1.00800           0
      5358 MEMB     40       POPC     H11S     HAL2     0.900000E-01   1.00800           0
      5359 MEMB     40       POPC     C212     CTL2    -0.180000       12.0110           0
      5360 MEMB     40       POPC     H12R     HAL2     0.900000E-01   1.00800           0
      5361 MEMB     40       POPC     H12S     HAL2     0.900000E-01   1.00800           0
      5362 MEMB     40       POPC     C213     CTL2    -0.180000       12.0110           0
      5363 MEMB     40       POPC     H13R     HAL2     0.900000E-01   1.00800           0
      5364 MEMB     40       POPC     H13S     HAL2     0.900000E-01   1.00800           0
      5365 MEMB     40       POPC     C214     CTL2    -0.180000       12.0110           0
      5366 MEMB     40       POPC     H14R     HAL2     0.900000E-01   1.00800           0
      5367 MEMB     40       POPC     H14S     HAL2     0.900000E-01   1.00800           0
      5368 MEMB     40       POPC     C215     CTL2    -0.180000       12.0110           0
      5369 MEMB     40       POPC     H15R     HAL2     0.900000E-01   1.00800           0
      5370 MEMB     40       POPC     H15S     HAL2     0.900000E-01   1.00800           0
      5371 MEMB     40       POPC     C216     CTL2    -0.180000       12.0110           0
      5372 MEMB     40       POPC     H16R     HAL2     0.900000E-01   1.00800           0
      5373 MEMB     40       POPC     H16S     HAL2     0.900000E-01   1.00800           0
      5374 MEMB     40       POPC     C217     CTL2    -0.180000       12.0110           0
      5375 MEMB     40       POPC     H17R     HAL2     0.900000E-01   1.00800           0
      5376 MEMB     40       POPC     H17S     HAL2     0.900000E-01   1.00800           0
      5377 MEMB     40       POPC     C218     CTL3    -0.270000       12.0110           0
      5378 MEMB     40       POPC     H18R     HAL3     0.900000E-01   1.00800           0
      5379 MEMB     40       POPC     H18S     HAL3     0.900000E-01   1.00800           0
      5380 MEMB     40       POPC     H18T     HAL3     0.900000E-01   1.00800           0
      5381 MEMB     40       POPC     C33      CTL2    -0.180000       12.0110           0
      5382 MEMB     40       POPC     H3X      HAL2     0.900000E-01   1.00800           0
      5383 MEMB     40       POPC     H3Y      HAL2     0.900000E-01   1.00800           0
      5384 MEMB     40       POPC     C34      CTL2    -0.180000       12.0110           0
      5385 MEMB     40       POPC     H4X      HAL2     0.900000E-01   1.00800           0
      5386 MEMB     40       POPC     H4Y      HAL2     0.900000E-01   1.00800           0
      5387 MEMB     40       POPC     C35      CTL2    -0.180000       12.0110           0
      5388 MEMB     40       POPC     H5X      HAL2     0.900000E-01   1.00800           0
      5389 MEMB     40       POPC     H5Y      HAL2     0.900000E-01   1.00800           0
      5390 MEMB     40       POPC     C36      CTL2    -0.180000       12.0110           0
      5391 MEMB     40       POPC     H6X      HAL2     0.900000E-01   1.00800           0
      5392 MEMB     40       POPC     H6Y      HAL2     0.900000E-01   1.00800           0
      5393 MEMB     40       POPC     C37      CTL2    -0.180000       12.0110           0
      5394 MEMB     40       POPC     H7X      HAL2     0.900000E-01   1.00800           0
      5395 MEMB     40       POPC     H7Y      HAL2     0.900000E-01   1.00800           0
      5396 MEMB     40       POPC     C38      CTL2    -0.180000       12.0110           0
      5397 MEMB     40       POPC     H8X      HAL2     0.900000E-01   1.00800           0
      5398 MEMB     40       POPC     H8Y      HAL2     0.900000E-01   1.00800           0
      5399 MEMB     40       POPC     C39      CTL2    -0.180000       12.0110           0
      5400 MEMB     40       POPC     H9X      HAL2     0.900000E-01   1.00800           0
      5401 MEMB     40       POPC     H9Y      HAL2     0.900000E-01   1.00800           0
      5402 MEMB     40       POPC     C310     CTL2    -0.180000       12.0110           0
      5403 MEMB     40       POPC     H10X     HAL2     0.900000E-01   1.00800           0
      5404 MEMB     40       POPC     H10Y     HAL2     0.900000E-01   1.00800           0
      5405 MEMB     40       POPC     C311     CTL2    -0.180000       12.0110           0
      5406 MEMB     40       POPC     H11X     HAL2     0.900000E-01   1.00800           0
      5407 MEMB     40       POPC     H11Y     HAL2     0.900000E-01   1.00800           0
      5408 MEMB     40       POPC     C312     CTL2    -0.180000       12.0110           0
      5409 MEMB     40       POPC     H12X     HAL2     0.900000E-01   1.00800           0
      5410 MEMB     40       POPC     H12Y     HAL2     0.900000E-01   1.00800           0
      5411 MEMB     40       POPC     C313     CTL2    -0.180000       12.0110           0
      5412 MEMB     40       POPC     H13X     HAL2     0.900000E-01   1.00800           0
      5413 MEMB     40       POPC     H13Y     HAL2     0.900000E-01   1.00800           0
      5414 MEMB     40       POPC     C314     CTL2    -0.180000       12.0110           0
      5415 MEMB     40       POPC     H14X     HAL2     0.900000E-01   1.00800           0
      5416 MEMB     40       POPC     H14Y     HAL2     0.900000E-01   1.00800           0
      5417 MEMB     40       POPC     C315     CTL2    -0.180000       12.0110           0
      5418 MEMB     40       POPC     H15X     HAL2     0.900000E-01   1.00800           0
      5419 MEMB     40       POPC     H15Y     HAL2     0.900000E-01   1.00800           0
      5420 MEMB     40       POPC     C316     CTL3    -0.270000       12.0110           0
      5421 MEMB     40       POPC     H16X     HAL3     0.900000E-01   1.00800           0
      5422 MEMB     40       POPC     H16Y     HAL3     0.900000E-01   1.00800           0
      5423 MEMB     40       POPC     H16Z     HAL3     0.900000E-01   1.00800           0
      5424 MEMB     41       POPC     N        NTL     -0.600000       14.0070           0
      5425 MEMB     41       POPC     C12      CTL2    -0.100000       12.0110           0
      5426 MEMB     41       POPC     H12A     HL       0.250000       1.00800           0
      5427 MEMB     41       POPC     H12B     HL       0.250000       1.00800           0
      5428 MEMB     41       POPC     C13      CTL5    -0.350000       12.0110           0
      5429 MEMB     41       POPC     H13A     HL       0.250000       1.00800           0
      5430 MEMB     41       POPC     H13B     HL       0.250000       1.00800           0
      5431 MEMB     41       POPC     H13C     HL       0.250000       1.00800           0
      5432 MEMB     41       POPC     C14      CTL5    -0.350000       12.0110           0
      5433 MEMB     41       POPC     H14A     HL       0.250000       1.00800           0
      5434 MEMB     41       POPC     H14B     HL       0.250000       1.00800           0
      5435 MEMB     41       POPC     H14C     HL       0.250000       1.00800           0
      5436 MEMB     41       POPC     C15      CTL5    -0.350000       12.0110           0
      5437 MEMB     41       POPC     H15A     HL       0.250000       1.00800           0
      5438 MEMB     41       POPC     H15B     HL       0.250000       1.00800           0
      5439 MEMB     41       POPC     H15C     HL       0.250000       1.00800           0
      5440 MEMB     41       POPC     C11      CTL2    -0.800000E-01   12.0110           0
      5441 MEMB     41       POPC     H11A     HAL2     0.900000E-01   1.00800           0
      5442 MEMB     41       POPC     H11B     HAL2     0.900000E-01   1.00800           0
      5443 MEMB     41       POPC     P        PL       1.500000       30.9740           0
      5444 MEMB     41       POPC     O13      O2L     -0.780000       15.9994           0
      5445 MEMB     41       POPC     O14      O2L     -0.780000       15.9994           0
      5446 MEMB     41       POPC     O12      OSLP    -0.570000       15.9994           0
      5447 MEMB     41       POPC     O11      OSLP    -0.570000       15.9994           0
      5448 MEMB     41       POPC     C1       CTL2    -0.800000E-01   12.0110           0
      5449 MEMB     41       POPC     HA       HAL2     0.900000E-01   1.00800           0
      5450 MEMB     41       POPC     HB       HAL2     0.900000E-01   1.00800           0
      5451 MEMB     41       POPC     C2       CTL1     0.170000       12.0110           0
      5452 MEMB     41       POPC     HS       HAL1     0.900000E-01   1.00800           0
      5453 MEMB     41       POPC     O21      OSL     -0.490000       15.9994           0
      5454 MEMB     41       POPC     C21      CL       0.900000       12.0110           0
      5455 MEMB     41       POPC     O22      OBL     -0.630000       15.9994           0
      5456 MEMB     41       POPC     C22      CTL2    -0.220000       12.0110           0
      5457 MEMB     41       POPC     H2R      HAL2     0.900000E-01   1.00800           0
      5458 MEMB     41       POPC     H2S      HAL2     0.900000E-01   1.00800           0
      5459 MEMB     41       POPC     C3       CTL2     0.800000E-01   12.0110           0
      5460 MEMB     41       POPC     HX       HAL2     0.900000E-01   1.00800           0
      5461 MEMB     41       POPC     HY       HAL2     0.900000E-01   1.00800           0
      5462 MEMB     41       POPC     O31      OSL     -0.490000       15.9994           0
      5463 MEMB     41       POPC     C31      CL       0.900000       12.0110           0
      5464 MEMB     41       POPC     O32      OBL     -0.630000       15.9994           0
      5465 MEMB     41       POPC     C32      CTL2    -0.220000       12.0110           0
      5466 MEMB     41       POPC     H2X      HAL2     0.900000E-01   1.00800           0
      5467 MEMB     41       POPC     H2Y      HAL2     0.900000E-01   1.00800           0
      5468 MEMB     41       POPC     C23      CTL2    -0.180000       12.0110           0
      5469 MEMB     41       POPC     H3R      HAL2     0.900000E-01   1.00800           0
      5470 MEMB     41       POPC     H3S      HAL2     0.900000E-01   1.00800           0
      5471 MEMB     41       POPC     C24      CTL2    -0.180000       12.0110           0
      5472 MEMB     41       POPC     H4R      HAL2     0.900000E-01   1.00800           0
      5473 MEMB     41       POPC     H4S      HAL2     0.900000E-01   1.00800           0
      5474 MEMB     41       POPC     C25      CTL2    -0.180000       12.0110           0
      5475 MEMB     41       POPC     H5R      HAL2     0.900000E-01   1.00800           0
      5476 MEMB     41       POPC     H5S      HAL2     0.900000E-01   1.00800           0
      5477 MEMB     41       POPC     C26      CTL2    -0.180000       12.0110           0
      5478 MEMB     41       POPC     H6R      HAL2     0.900000E-01   1.00800           0
      5479 MEMB     41       POPC     H6S      HAL2     0.900000E-01   1.00800           0
      5480 MEMB     41       POPC     C27      CTL2    -0.180000       12.0110           0
      5481 MEMB     41       POPC     H7R      HAL2     0.900000E-01   1.00800           0
      5482 MEMB     41       POPC     H7S      HAL2     0.900000E-01   1.00800           0
      5483 MEMB     41       POPC     C28      CTL2    -0.180000       12.0110           0
      5484 MEMB     41       POPC     H8R      HAL2     0.900000E-01   1.00800           0
      5485 MEMB     41       POPC     H8S      HAL2     0.900000E-01   1.00800           0
      5486 MEMB     41       POPC     C29      CEL1    -0.150000       12.0110           0
      5487 MEMB     41       POPC     H91      HEL1     0.150000       1.00800           0
      5488 MEMB     41       POPC     C210     CEL1    -0.150000       12.0110           0
      5489 MEMB     41       POPC     H101     HEL1     0.150000       1.00800           0
      5490 MEMB     41       POPC     C211     CTL2    -0.180000       12.0110           0
      5491 MEMB     41       POPC     H11R     HAL2     0.900000E-01   1.00800           0
      5492 MEMB     41       POPC     H11S     HAL2     0.900000E-01   1.00800           0
      5493 MEMB     41       POPC     C212     CTL2    -0.180000       12.0110           0
      5494 MEMB     41       POPC     H12R     HAL2     0.900000E-01   1.00800           0
      5495 MEMB     41       POPC     H12S     HAL2     0.900000E-01   1.00800           0
      5496 MEMB     41       POPC     C213     CTL2    -0.180000       12.0110           0
      5497 MEMB     41       POPC     H13R     HAL2     0.900000E-01   1.00800           0
      5498 MEMB     41       POPC     H13S     HAL2     0.900000E-01   1.00800           0
      5499 MEMB     41       POPC     C214     CTL2    -0.180000       12.0110           0
      5500 MEMB     41       POPC     H14R     HAL2     0.900000E-01   1.00800           0
      5501 MEMB     41       POPC     H14S     HAL2     0.900000E-01   1.00800           0
      5502 MEMB     41       POPC     C215     CTL2    -0.180000       12.0110           0
      5503 MEMB     41       POPC     H15R     HAL2     0.900000E-01   1.00800           0
      5504 MEMB     41       POPC     H15S     HAL2     0.900000E-01   1.00800           0
      5505 MEMB     41       POPC     C216     CTL2    -0.180000       12.0110           0
      5506 MEMB     41       POPC     H16R     HAL2     0.900000E-01   1.00800           0
      5507 MEMB     41       POPC     H16S     HAL2     0.900000E-01   1.00800           0
      5508 MEMB     41       POPC     C217     CTL2    -0.180000       12.0110           0
      5509 MEMB     41       POPC     H17R     HAL2     0.900000E-01   1.00800           0
      5510 MEMB     41       POPC     H17S     HAL2     0.900000E-01   1.00800           0
      5511 MEMB     41       POPC     C218     CTL3    -0.270000       12.0110           0
      5512 MEMB     41       POPC     H18R     HAL3     0.900000E-01   1.00800           0
      5513 MEMB     41       POPC     H18S     HAL3     0.900000E-01   1.00800           0
      5514 MEMB     41       POPC     H18T     HAL3     0.900000E-01   1.00800           0
      5515 MEMB     41       POPC     C33      CTL2    -0.180000       12.0110           0
      5516 MEMB     41       POPC     H3X      HAL2     0.900000E-01   1.00800           0
      5517 MEMB     41       POPC     H3Y      HAL2     0.900000E-01   1.00800           0
      5518 MEMB     41       POPC     C34      CTL2    -0.180000       12.0110           0
      5519 MEMB     41       POPC     H4X      HAL2     0.900000E-01   1.00800           0
      5520 MEMB     41       POPC     H4Y      HAL2     0.900000E-01   1.00800           0
      5521 MEMB     41       POPC     C35      CTL2    -0.180000       12.0110           0
      5522 MEMB     41       POPC     H5X      HAL2     0.900000E-01   1.00800           0
      5523 MEMB     41       POPC     H5Y      HAL2     0.900000E-01   1.00800           0
      5524 MEMB     41       POPC     C36      CTL2    -0.180000       12.0110           0
      5525 MEMB     41       POPC     H6X      HAL2     0.900000E-01   1.00800           0
      5526 MEMB     41       POPC     H6Y      HAL2     0.900000E-01   1.00800           0
      5527 MEMB     41       POPC     C37      CTL2    -0.180000       12.0110           0
      5528 MEMB     41       POPC     H7X      HAL2     0.900000E-01   1.00800           0
      5529 MEMB     41       POPC     H7Y      HAL2     0.900000E-01   1.00800           0
      5530 MEMB     41       POPC     C38      CTL2    -0.180000       12.0110           0
      5531 MEMB     41       POPC     H8X      HAL2     0.900000E-01   1.00800           0
      5532 MEMB     41       POPC     H8Y      HAL2     0.900000E-01   1.00800           0
      5533 MEMB     41       POPC     C39      CTL2    -0.180000       12.0110           0
      5534 MEMB     41       POPC     H9X      HAL2     0.900000E-01   1.00800           0
      5535 MEMB     41       POPC     H9Y      HAL2     0.900000E-01   1.00800           0
      5536 MEMB     41       POPC     C310     CTL2    -0.180000       12.0110           0
      5537 MEMB     41       POPC     H10X     HAL2     0.900000E-01   1.00800           0
      5538 MEMB     41       POPC     H10Y     HAL2     0.900000E-01   1.00800           0
      5539 MEMB     41       POPC     C311     CTL2    -0.180000       12.0110           0
      5540 MEMB     41       POPC     H11X     HAL2     0.900000E-01   1.00800           0
      5541 MEMB     41       POPC     H11Y     HAL2     0.900000E-01   1.00800           0
      5542 MEMB     41       POPC     C312     CTL2    -0.180000       12.0110           0
      5543 MEMB     41       POPC     H12X     HAL2     0.900000E-01   1.00800           0
      5544 MEMB     41       POPC     H12Y     HAL2     0.900000E-01   1.00800           0
      5545 MEMB     41       POPC     C313     CTL2    -0.180000       12.0110           0
      5546 MEMB     41       POPC     H13X     HAL2     0.900000E-01   1.00800           0
      5547 MEMB     41       POPC     H13Y     HAL2     0.900000E-01   1.00800           0
      5548 MEMB     41       POPC     C314     CTL2    -0.180000       12.0110           0
      5549 MEMB     41       POPC     H14X     HAL2     0.900000E-01   1.00800           0
      5550 MEMB     41       POPC     H14Y     HAL2     0.900000E-01   1.00800           0
      5551 MEMB     41       POPC     C315     CTL2    -0.180000       12.0110           0
      5552 MEMB     41       POPC     H15X     HAL2     0.900000E-01   1.00800           0
      5553 MEMB     41       POPC     H15Y     HAL2     0.900000E-01   1.00800           0
      5554 MEMB     41       POPC     C316     CTL3    -0.270000       12.0110           0
      5555 MEMB     41       POPC     H16X     HAL3     0.900000E-01   1.00800           0
      5556 MEMB     41       POPC     H16Y     HAL3     0.900000E-01   1.00800           0
      5557 MEMB     41       POPC     H16Z     HAL3     0.900000E-01   1.00800           0
      5558 MEMB     42       POPC     N        NTL     -0.600000       14.0070           0
      5559 MEMB     42       POPC     C12      CTL2    -0.100000       12.0110           0
      5560 MEMB     42       POPC     H12A     HL       0.250000       1.00800           0
      5561 MEMB     42       POPC     H12B     HL       0.250000       1.00800           0
      5562 MEMB     42       POPC     C13      CTL5    -0.350000       12.0110           0
      5563 MEMB     42       POPC     H13A     HL       0.250000       1.00800           0
      5564 MEMB     42       POPC     H13B     HL       0.250000       1.00800           0
      5565 MEMB     42       POPC     H13C     HL       0.250000       1.00800           0
      5566 MEMB     42       POPC     C14      CTL5    -0.350000       12.0110           0
      5567 MEMB     42       POPC     H14A     HL       0.250000       1.00800           0
      5568 MEMB     42       POPC     H14B     HL       0.250000       1.00800           0
      5569 MEMB     42       POPC     H14C     HL       0.250000       1.00800           0
      5570 MEMB     42       POPC     C15      CTL5    -0.350000       12.0110           0
      5571 MEMB     42       POPC     H15A     HL       0.250000       1.00800           0
      5572 MEMB     42       POPC     H15B     HL       0.250000       1.00800           0
      5573 MEMB     42       POPC     H15C     HL       0.250000       1.00800           0
      5574 MEMB     42       POPC     C11      CTL2    -0.800000E-01   12.0110           0
      5575 MEMB     42       POPC     H11A     HAL2     0.900000E-01   1.00800           0
      5576 MEMB     42       POPC     H11B     HAL2     0.900000E-01   1.00800           0
      5577 MEMB     42       POPC     P        PL       1.500000       30.9740           0
      5578 MEMB     42       POPC     O13      O2L     -0.780000       15.9994           0
      5579 MEMB     42       POPC     O14      O2L     -0.780000       15.9994           0
      5580 MEMB     42       POPC     O12      OSLP    -0.570000       15.9994           0
      5581 MEMB     42       POPC     O11      OSLP    -0.570000       15.9994           0
      5582 MEMB     42       POPC     C1       CTL2    -0.800000E-01   12.0110           0
      5583 MEMB     42       POPC     HA       HAL2     0.900000E-01   1.00800           0
      5584 MEMB     42       POPC     HB       HAL2     0.900000E-01   1.00800           0
      5585 MEMB     42       POPC     C2       CTL1     0.170000       12.0110           0
      5586 MEMB     42       POPC     HS       HAL1     0.900000E-01   1.00800           0
      5587 MEMB     42       POPC     O21      OSL     -0.490000       15.9994           0
      5588 MEMB     42       POPC     C21      CL       0.900000       12.0110           0
      5589 MEMB     42       POPC     O22      OBL     -0.630000       15.9994           0
      5590 MEMB     42       POPC     C22      CTL2    -0.220000       12.0110           0
      5591 MEMB     42       POPC     H2R      HAL2     0.900000E-01   1.00800           0
      5592 MEMB     42       POPC     H2S      HAL2     0.900000E-01   1.00800           0
      5593 MEMB     42       POPC     C3       CTL2     0.800000E-01   12.0110           0
      5594 MEMB     42       POPC     HX       HAL2     0.900000E-01   1.00800           0
      5595 MEMB     42       POPC     HY       HAL2     0.900000E-01   1.00800           0
      5596 MEMB     42       POPC     O31      OSL     -0.490000       15.9994           0
      5597 MEMB     42       POPC     C31      CL       0.900000       12.0110           0
      5598 MEMB     42       POPC     O32      OBL     -0.630000       15.9994           0
      5599 MEMB     42       POPC     C32      CTL2    -0.220000       12.0110           0
      5600 MEMB     42       POPC     H2X      HAL2     0.900000E-01   1.00800           0
      5601 MEMB     42       POPC     H2Y      HAL2     0.900000E-01   1.00800           0
      5602 MEMB     42       POPC     C23      CTL2    -0.180000       12.0110           0
      5603 MEMB     42       POPC     H3R      HAL2     0.900000E-01   1.00800           0
      5604 MEMB     42       POPC     H3S      HAL2     0.900000E-01   1.00800           0
      5605 MEMB     42       POPC     C24      CTL2    -0.180000       12.0110           0
      5606 MEMB     42       POPC     H4R      HAL2     0.900000E-01   1.00800           0
      5607 MEMB     42       POPC     H4S      HAL2     0.900000E-01   1.00800           0
      5608 MEMB     42       POPC     C25      CTL2    -0.180000       12.0110           0
      5609 MEMB     42       POPC     H5R      HAL2     0.900000E-01   1.00800           0
      5610 MEMB     42       POPC     H5S      HAL2     0.900000E-01   1.00800           0
      5611 MEMB     42       POPC     C26      CTL2    -0.180000       12.0110           0
      5612 MEMB     42       POPC     H6R      HAL2     0.900000E-01   1.00800           0
      5613 MEMB     42       POPC     H6S      HAL2     0.900000E-01   1.00800           0
      5614 MEMB     42       POPC     C27      CTL2    -0.180000       12.0110           0
      5615 MEMB     42       POPC     H7R      HAL2     0.900000E-01   1.00800           0
      5616 MEMB     42       POPC     H7S      HAL2     0.900000E-01   1.00800           0
      5617 MEMB     42       POPC     C28      CTL2    -0.180000       12.0110           0
      5618 MEMB     42       POPC     H8R      HAL2     0.900000E-01   1.00800           0
      5619 MEMB     42       POPC     H8S      HAL2     0.900000E-01   1.00800           0
      5620 MEMB     42       POPC     C29      CEL1    -0.150000       12.0110           0
      5621 MEMB     42       POPC     H91      HEL1     0.150000       1.00800           0
      5622 MEMB     42       POPC     C210     CEL1    -0.150000       12.0110           0
      5623 MEMB     42       POPC     H101     HEL1     0.150000       1.00800           0
      5624 MEMB     42       POPC     C211     CTL2    -0.180000       12.0110           0
      5625 MEMB     42       POPC     H11R     HAL2     0.900000E-01   1.00800           0
      5626 MEMB     42       POPC     H11S     HAL2     0.900000E-01   1.00800           0
      5627 MEMB     42       POPC     C212     CTL2    -0.180000       12.0110           0
      5628 MEMB     42       POPC     H12R     HAL2     0.900000E-01   1.00800           0
      5629 MEMB     42       POPC     H12S     HAL2     0.900000E-01   1.00800           0
      5630 MEMB     42       POPC     C213     CTL2    -0.180000       12.0110           0
      5631 MEMB     42       POPC     H13R     HAL2     0.900000E-01   1.00800           0
      5632 MEMB     42       POPC     H13S     HAL2     0.900000E-01   1.00800           0
      5633 MEMB     42       POPC     C214     CTL2    -0.180000       12.0110           0
      5634 MEMB     42       POPC     H14R     HAL2     0.900000E-01   1.00800           0
      5635 MEMB     42       POPC     H14S     HAL2     0.900000E-01   1.00800           0
      5636 MEMB     42       POPC     C215     CTL2    -0.180000       12.0110           0
      5637 MEMB     42       POPC     H15R     HAL2     0.900000E-01   1.00800           0
      5638 MEMB     42       POPC     H15S     HAL2     0.900000E-01   1.00800           0
      5639 MEMB     42       POPC     C216     CTL2    -0.180000       12.0110           0
      5640 MEMB     42       POPC     H16R     HAL2     0.900000E-01   1.00800           0
      5641 MEMB     42       POPC     H16S     HAL2     0.900000E-01   1.00800           0
      5642 MEMB     42       POPC     C217     CTL2    -0.180000       12.0110           0
      5643 MEMB     42       POPC     H17R     HAL2     0.900000E-01   1.00800           0
      5644 MEMB     42       POPC     H17S     HAL2     0.900000E-01   1.00800           0
      5645 MEMB     42       POPC     C218     CTL3    -0.270000       12.0110           0
      5646 MEMB     42       POPC     H18R     HAL3     0.900000E-01   1.00800           0
      5647 MEMB     42       POPC     H18S     HAL3     0.900000E-01   1.00800           0
      5648 MEMB     42       POPC     H18T     HAL3     0.900000E-01   1.00800           0
      5649 MEMB     42       POPC     C33      CTL2    -0.180000       12.0110           0
      5650 MEMB     42       POPC     H3X      HAL2     0.900000E-01   1.00800           0
      5651 MEMB     42       POPC     H3Y      HAL2     0.900000E-01   1.00800           0
      5652 MEMB     42       POPC     C34      CTL2    -0.180000       12.0110           0
      5653 MEMB     42       POPC     H4X      HAL2     0.900000E-01   1.00800           0
      5654 MEMB     42       POPC     H4Y      HAL2     0.900000E-01   1.00800           0
      5655 MEMB     42       POPC     C35      CTL2    -0.180000       12.0110           0
      5656 MEMB     42       POPC     H5X      HAL2     0.900000E-01   1.00800           0
      5657 MEMB     42       POPC     H5Y      HAL2     0.900000E-01   1.00800           0
      5658 MEMB     42       POPC     C36      CTL2    -0.180000       12.0110           0
      5659 MEMB     42       POPC     H6X      HAL2     0.900000E-01   1.00800           0
      5660 MEMB     42       POPC     H6Y      HAL2     0.900000E-01   1.00800           0
      5661 MEMB     42       POPC     C37      CTL2    -0.180000       12.0110           0
      5662 MEMB     42       POPC     H7X      HAL2     0.900000E-01   1.00800           0
      5663 MEMB     42       POPC     H7Y      HAL2     0.900000E-01   1.00800           0
      5664 MEMB     42       POPC     C38      CTL2    -0.180000       12.0110           0
      5665 MEMB     42       POPC     H8X      HAL2     0.900000E-01   1.00800           0
      5666 MEMB     42       POPC     H8Y      HAL2     0.900000E-01   1.00800           0
      5667 MEMB     42       POPC     C39      CTL2    -0.180000       12.0110           0
      5668 MEMB     42       POPC     H9X      HAL2     0.900000E-01   1.00800           0
      5669 MEMB     42       POPC     H9Y      HAL2     0.900000E-01   1.00800           0
      5670 MEMB     42       POPC     C310     CTL2    -0.180000       12.0110           0
      5671 MEMB     42       POPC     H10X     HAL2     0.900000E-01   1.00800           0
      5672 MEMB     42       POPC     H10Y     HAL2     0.900000E-01   1.00800           0
      5673 MEMB     42       POPC     C311     CTL2    -0.180000       12.0110           0
      5674 MEMB     42       POPC     H11X     HAL2     0.900000E-01   1.00800           0
      5675 MEMB     42       POPC     H11Y     HAL2     0.900000E-01   1.00800           0
      5676 MEMB     42       POPC     C312     CTL2    -0.180000       12.0110           0
      5677 MEMB     42       POPC     H12X     HAL2     0.900000E-01   1.00800           0
      5678 MEMB     42       POPC     H12Y     HAL2     0.900000E-01   1.00800           0
      5679 MEMB     42       POPC     C313     CTL2    -0.180000       12.0110           0
      5680 MEMB     42       POPC     H13X     HAL2     0.900000E-01   1.00800           0
      5681 MEMB     42       POPC     H13Y     HAL2     0.900000E-01   1.00800           0
      5682 MEMB     42       POPC     C314     CTL2    -0.180000       12.0110           0
      5683 MEMB     42       POPC     H14X     HAL2     0.900000E-01   1.00800           0
      5684 MEMB     42       POPC     H14Y     HAL2     0.900000E-01   1.00800           0
      5685 MEMB     42       POPC     C315     CTL2    -0.180000       12.0110           0
      5686 MEMB     42       POPC     H15X     HAL2     0.900000E-01   1.00800           0
      5687 MEMB     42       POPC     H15Y     HAL2     0.900000E-01   1.00800           0
      5688 MEMB     42       POPC     C316     CTL3    -0.270000       12.0110           0
      5689 MEMB     42       POPC     H16X     HAL3     0.900000E-01   1.00800           0
      5690 MEMB     42       POPC     H16Y     HAL3     0.900000E-01   1.00800           0
      5691 MEMB     42       POPC     H16Z     HAL3     0.900000E-01   1.00800           0
      5692 MEMB     43       POPC     N        NTL     -0.600000       14.0070           0
      5693 MEMB     43       POPC     C12      CTL2    -0.100000       12.0110           0
      5694 MEMB     43       POPC     H12A     HL       0.250000       1.00800           0
      5695 MEMB     43       POPC     H12B     HL       0.250000       1.00800           0
      5696 MEMB     43       POPC     C13      CTL5    -0.350000       12.0110           0
      5697 MEMB     43       POPC     H13A     HL       0.250000       1.00800           0
      5698 MEMB     43       POPC     H13B     HL       0.250000       1.00800           0
      5699 MEMB     43       POPC     H13C     HL       0.250000       1.00800           0
      5700 MEMB     43       POPC     C14      CTL5    -0.350000       12.0110           0
      5701 MEMB     43       POPC     H14A     HL       0.250000       1.00800           0
      5702 MEMB     43       POPC     H14B     HL       0.250000       1.00800           0
      5703 MEMB     43       POPC     H14C     HL       0.250000       1.00800           0
      5704 MEMB     43       POPC     C15      CTL5    -0.350000       12.0110           0
      5705 MEMB     43       POPC     H15A     HL       0.250000       1.00800           0
      5706 MEMB     43       POPC     H15B     HL       0.250000       1.00800           0
      5707 MEMB     43       POPC     H15C     HL       0.250000       1.00800           0
      5708 MEMB     43       POPC     C11      CTL2    -0.800000E-01   12.0110           0
      5709 MEMB     43       POPC     H11A     HAL2     0.900000E-01   1.00800           0
      5710 MEMB     43       POPC     H11B     HAL2     0.900000E-01   1.00800           0
      5711 MEMB     43       POPC     P        PL       1.500000       30.9740           0
      5712 MEMB     43       POPC     O13      O2L     -0.780000       15.9994           0
      5713 MEMB     43       POPC     O14      O2L     -0.780000       15.9994           0
      5714 MEMB     43       POPC     O12      OSLP    -0.570000       15.9994           0
      5715 MEMB     43       POPC     O11      OSLP    -0.570000       15.9994           0
      5716 MEMB     43       POPC     C1       CTL2    -0.800000E-01   12.0110           0
      5717 MEMB     43       POPC     HA       HAL2     0.900000E-01   1.00800           0
      5718 MEMB     43       POPC     HB       HAL2     0.900000E-01   1.00800           0
      5719 MEMB     43       POPC     C2       CTL1     0.170000       12.0110           0
      5720 MEMB     43       POPC     HS       HAL1     0.900000E-01   1.00800           0
      5721 MEMB     43       POPC     O21      OSL     -0.490000       15.9994           0
      5722 MEMB     43       POPC     C21      CL       0.900000       12.0110           0
      5723 MEMB     43       POPC     O22      OBL     -0.630000       15.9994           0
      5724 MEMB     43       POPC     C22      CTL2    -0.220000       12.0110           0
      5725 MEMB     43       POPC     H2R      HAL2     0.900000E-01   1.00800           0
      5726 MEMB     43       POPC     H2S      HAL2     0.900000E-01   1.00800           0
      5727 MEMB     43       POPC     C3       CTL2     0.800000E-01   12.0110           0
      5728 MEMB     43       POPC     HX       HAL2     0.900000E-01   1.00800           0
      5729 MEMB     43       POPC     HY       HAL2     0.900000E-01   1.00800           0
      5730 MEMB     43       POPC     O31      OSL     -0.490000       15.9994           0
      5731 MEMB     43       POPC     C31      CL       0.900000       12.0110           0
      5732 MEMB     43       POPC     O32      OBL     -0.630000       15.9994           0
      5733 MEMB     43       POPC     C32      CTL2    -0.220000       12.0110           0
      5734 MEMB     43       POPC     H2X      HAL2     0.900000E-01   1.00800           0
      5735 MEMB     43       POPC     H2Y      HAL2     0.900000E-01   1.00800           0
      5736 MEMB     43       POPC     C23      CTL2    -0.180000       12.0110           0
      5737 MEMB     43       POPC     H3R      HAL2     0.900000E-01   1.00800           0
      5738 MEMB     43       POPC     H3S      HAL2     0.900000E-01   1.00800           0
      5739 MEMB     43       POPC     C24      CTL2    -0.180000       12.0110           0
      5740 MEMB     43       POPC     H4R      HAL2     0.900000E-01   1.00800           0
      5741 MEMB     43       POPC     H4S      HAL2     0.900000E-01   1.00800           0
      5742 MEMB     43       POPC     C25      CTL2    -0.180000       12.0110           0
      5743 MEMB     43       POPC     H5R      HAL2     0.900000E-01   1.00800           0
      5744 MEMB     43       POPC     H5S      HAL2     0.900000E-01   1.00800           0
      5745 MEMB     43       POPC     C26      CTL2    -0.180000       12.0110           0
      5746 MEMB     43       POPC     H6R      HAL2     0.900000E-01   1.00800           0
      5747 MEMB     43       POPC     H6S      HAL2     0.900000E-01   1.00800           0
      5748 MEMB     43       POPC     C27      CTL2    -0.180000       12.0110           0
      5749 MEMB     43       POPC     H7R      HAL2     0.900000E-01   1.00800           0
      5750 MEMB     43       POPC     H7S      HAL2     0.900000E-01   1.00800           0
      5751 MEMB     43       POPC     C28      CTL2    -0.180000       12.0110           0
      5752 MEMB     43       POPC     H8R      HAL2     0.900000E-01   1.00800           0
      5753 MEMB     43       POPC     H8S      HAL2     0.900000E-01   1.00800           0
      5754 MEMB     43       POPC     C29      CEL1    -0.150000       12.0110           0
      5755 MEMB     43       POPC     H91      HEL1     0.150000       1.00800           0
      5756 MEMB     43       POPC     C210     CEL1    -0.150000       12.0110           0
      5757 MEMB     43       POPC     H101     HEL1     0.150000       1.00800           0
      5758 MEMB     43       POPC     C211     CTL2    -0.180000       12.0110           0
      5759 MEMB     43       POPC     H11R     HAL2     0.900000E-01   1.00800           0
      5760 MEMB     43       POPC     H11S     HAL2     0.900000E-01   1.00800           0
      5761 MEMB     43       POPC     C212     CTL2    -0.180000       12.0110           0
      5762 MEMB     43       POPC     H12R     HAL2     0.900000E-01   1.00800           0
      5763 MEMB     43       POPC     H12S     HAL2     0.900000E-01   1.00800           0
      5764 MEMB     43       POPC     C213     CTL2    -0.180000       12.0110           0
      5765 MEMB     43       POPC     H13R     HAL2     0.900000E-01   1.00800           0
      5766 MEMB     43       POPC     H13S     HAL2     0.900000E-01   1.00800           0
      5767 MEMB     43       POPC     C214     CTL2    -0.180000       12.0110           0
      5768 MEMB     43       POPC     H14R     HAL2     0.900000E-01   1.00800           0
      5769 MEMB     43       POPC     H14S     HAL2     0.900000E-01   1.00800           0
      5770 MEMB     43       POPC     C215     CTL2    -0.180000       12.0110           0
      5771 MEMB     43       POPC     H15R     HAL2     0.900000E-01   1.00800           0
      5772 MEMB     43       POPC     H15S     HAL2     0.900000E-01   1.00800           0
      5773 MEMB     43       POPC     C216     CTL2    -0.180000       12.0110           0
      5774 MEMB     43       POPC     H16R     HAL2     0.900000E-01   1.00800           0
      5775 MEMB     43       POPC     H16S     HAL2     0.900000E-01   1.00800           0
      5776 MEMB     43       POPC     C217     CTL2    -0.180000       12.0110           0
      5777 MEMB     43       POPC     H17R     HAL2     0.900000E-01   1.00800           0
      5778 MEMB     43       POPC     H17S     HAL2     0.900000E-01   1.00800           0
      5779 MEMB     43       POPC     C218     CTL3    -0.270000       12.0110           0
      5780 MEMB     43       POPC     H18R     HAL3     0.900000E-01   1.00800           0
      5781 MEMB     43       POPC     H18S     HAL3     0.900000E-01   1.00800           0
      5782 MEMB     43       POPC     H18T     HAL3     0.900000E-01   1.00800           0
      5783 MEMB     43       POPC     C33      CTL2    -0.180000       12.0110           0
      5784 MEMB     43       POPC     H3X      HAL2     0.900000E-01   1.00800           0
      5785 MEMB     43       POPC     H3Y      HAL2     0.900000E-01   1.00800           0
      5786 MEMB     43       POPC     C34      CTL2    -0.180000       12.0110           0
      5787 MEMB     43       POPC     H4X      HAL2     0.900000E-01   1.00800           0
      5788 MEMB     43       POPC     H4Y      HAL2     0.900000E-01   1.00800           0
      5789 MEMB     43       POPC     C35      CTL2    -0.180000       12.0110           0
      5790 MEMB     43       POPC     H5X      HAL2     0.900000E-01   1.00800           0
      5791 MEMB     43       POPC     H5Y      HAL2     0.900000E-01   1.00800           0
      5792 MEMB     43       POPC     C36      CTL2    -0.180000       12.0110           0
      5793 MEMB     43       POPC     H6X      HAL2     0.900000E-01   1.00800           0
      5794 MEMB     43       POPC     H6Y      HAL2     0.900000E-01   1.00800           0
      5795 MEMB     43       POPC     C37      CTL2    -0.180000       12.0110           0
      5796 MEMB     43       POPC     H7X      HAL2     0.900000E-01   1.00800           0
      5797 MEMB     43       POPC     H7Y      HAL2     0.900000E-01   1.00800           0
      5798 MEMB     43       POPC     C38      CTL2    -0.180000       12.0110           0
      5799 MEMB     43       POPC     H8X      HAL2     0.900000E-01   1.00800           0
      5800 MEMB     43       POPC     H8Y      HAL2     0.900000E-01   1.00800           0
      5801 MEMB     43       POPC     C39      CTL2    -0.180000       12.0110           0
      5802 MEMB     43       POPC     H9X      HAL2     0.900000E-01   1.00800           0
      5803 MEMB     43       POPC     H9Y      HAL2     0.900000E-01   1.00800           0
      5804 MEMB     43       POPC     C310     CTL2    -0.180000       12.0110           0
      5805 MEMB     43       POPC     H10X     HAL2     0.900000E-01   1.00800           0
      5806 MEMB     43       POPC     H10Y     HAL2     0.900000E-01   1.00800           0
      5807 MEMB     43       POPC     C311     CTL2    -0.180000       12.0110           0
      5808 MEMB     43       POPC     H11X     HAL2     0.900000E-01   1.00800           0
      5809 MEMB     43       POPC     H11Y     HAL2     0.900000E-01   1.00800           0
      5810 MEMB     43       POPC     C312     CTL2    -0.180000       12.0110           0
      5811 MEMB     43       POPC     H12X     HAL2     0.900000E-01   1.00800           0
      5812 MEMB     43       POPC     H12Y     HAL2     0.900000E-01   1.00800           0
      5813 MEMB     43       POPC     C313     CTL2    -0.180000       12.0110           0
      5814 MEMB     43       POPC     H13X     HAL2     0.900000E-01   1.00800           0
      5815 MEMB     43       POPC     H13Y     HAL2     0.900000E-01   1.00800           0
      5816 MEMB     43       POPC     C314     CTL2    -0.180000       12.0110           0
      5817 MEMB     43       POPC     H14X     HAL2     0.900000E-01   1.00800           0
      5818 MEMB     43       POPC     H14Y     HAL2     0.900000E-01   1.00800           0
      5819 MEMB     43       POPC     C315     CTL2    -0.180000       12.0110           0
      5820 MEMB     43       POPC     H15X     HAL2     0.900000E-01   1.00800           0
      5821 MEMB     43       POPC     H15Y     HAL2     0.900000E-01   1.00800           0
      5822 MEMB     43       POPC     C316     CTL3    -0.270000       12.0110           0
      5823 MEMB     43       POPC     H16X     HAL3     0.900000E-01   1.00800           0
      5824 MEMB     43       POPC     H16Y     HAL3     0.900000E-01   1.00800           0
      5825 MEMB     43       POPC     H16Z     HAL3     0.900000E-01   1.00800           0
      5826 MEMB     44       POPC     N        NTL     -0.600000       14.0070           0
      5827 MEMB     44       POPC     C12      CTL2    -0.100000       12.0110           0
      5828 MEMB     44       POPC     H12A     HL       0.250000       1.00800           0
      5829 MEMB     44       POPC     H12B     HL       0.250000       1.00800           0
      5830 MEMB     44       POPC     C13      CTL5    -0.350000       12.0110           0
      5831 MEMB     44       POPC     H13A     HL       0.250000       1.00800           0
      5832 MEMB     44       POPC     H13B     HL       0.250000       1.00800           0
      5833 MEMB     44       POPC     H13C     HL       0.250000       1.00800           0
      5834 MEMB     44       POPC     C14      CTL5    -0.350000       12.0110           0
      5835 MEMB     44       POPC     H14A     HL       0.250000       1.00800           0
      5836 MEMB     44       POPC     H14B     HL       0.250000       1.00800           0
      5837 MEMB     44       POPC     H14C     HL       0.250000       1.00800           0
      5838 MEMB     44       POPC     C15      CTL5    -0.350000       12.0110           0
      5839 MEMB     44       POPC     H15A     HL       0.250000       1.00800           0
      5840 MEMB     44       POPC     H15B     HL       0.250000       1.00800           0
      5841 MEMB     44       POPC     H15C     HL       0.250000       1.00800           0
      5842 MEMB     44       POPC     C11      CTL2    -0.800000E-01   12.0110           0
      5843 MEMB     44       POPC     H11A     HAL2     0.900000E-01   1.00800           0
      5844 MEMB     44       POPC     H11B     HAL2     0.900000E-01   1.00800           0
      5845 MEMB     44       POPC     P        PL       1.500000       30.9740           0
      5846 MEMB     44       POPC     O13      O2L     -0.780000       15.9994           0
      5847 MEMB     44       POPC     O14      O2L     -0.780000       15.9994           0
      5848 MEMB     44       POPC     O12      OSLP    -0.570000       15.9994           0
      5849 MEMB     44       POPC     O11      OSLP    -0.570000       15.9994           0
      5850 MEMB     44       POPC     C1       CTL2    -0.800000E-01   12.0110           0
      5851 MEMB     44       POPC     HA       HAL2     0.900000E-01   1.00800           0
      5852 MEMB     44       POPC     HB       HAL2     0.900000E-01   1.00800           0
      5853 MEMB     44       POPC     C2       CTL1     0.170000       12.0110           0
      5854 MEMB     44       POPC     HS       HAL1     0.900000E-01   1.00800           0
      5855 MEMB     44       POPC     O21      OSL     -0.490000       15.9994           0
      5856 MEMB     44       POPC     C21      CL       0.900000       12.0110           0
      5857 MEMB     44       POPC     O22      OBL     -0.630000       15.9994           0
      5858 MEMB     44       POPC     C22      CTL2    -0.220000       12.0110           0
      5859 MEMB     44       POPC     H2R      HAL2     0.900000E-01   1.00800           0
      5860 MEMB     44       POPC     H2S      HAL2     0.900000E-01   1.00800           0
      5861 MEMB     44       POPC     C3       CTL2     0.800000E-01   12.0110           0
      5862 MEMB     44       POPC     HX       HAL2     0.900000E-01   1.00800           0
      5863 MEMB     44       POPC     HY       HAL2     0.900000E-01   1.00800           0
      5864 MEMB     44       POPC     O31      OSL     -0.490000       15.9994           0
      5865 MEMB     44       POPC     C31      CL       0.900000       12.0110           0
      5866 MEMB     44       POPC     O32      OBL     -0.630000       15.9994           0
      5867 MEMB     44       POPC     C32      CTL2    -0.220000       12.0110           0
      5868 MEMB     44       POPC     H2X      HAL2     0.900000E-01   1.00800           0
      5869 MEMB     44       POPC     H2Y      HAL2     0.900000E-01   1.00800           0
      5870 MEMB     44       POPC     C23      CTL2    -0.180000       12.0110           0
      5871 MEMB     44       POPC     H3R      HAL2     0.900000E-01   1.00800           0
      5872 MEMB     44       POPC     H3S      HAL2     0.900000E-01   1.00800           0
      5873 MEMB     44       POPC     C24      CTL2    -0.180000       12.0110           0
      5874 MEMB     44       POPC     H4R      HAL2     0.900000E-01   1.00800           0
      5875 MEMB     44       POPC     H4S      HAL2     0.900000E-01   1.00800           0
      5876 MEMB     44       POPC     C25      CTL2    -0.180000       12.0110           0
      5877 MEMB     44       POPC     H5R      HAL2     0.900000E-01   1.00800           0
      5878 MEMB     44       POPC     H5S      HAL2     0.900000E-01   1.00800           0
      5879 MEMB     44       POPC     C26      CTL2    -0.180000       12.0110           0
      5880 MEMB     44       POPC     H6R      HAL2     0.900000E-01   1.00800           0
      5881 MEMB     44       POPC     H6S      HAL2     0.900000E-01   1.00800           0
      5882 MEMB     44       POPC     C27      CTL2    -0.180000       12.0110           0
      5883 MEMB     44       POPC     H7R      HAL2     0.900000E-01   1.00800           0
      5884 MEMB     44       POPC     H7S      HAL2     0.900000E-01   1.00800           0
      5885 MEMB     44       POPC     C28      CTL2    -0.180000       12.0110           0
      5886 MEMB     44       POPC     H8R      HAL2     0.900000E-01   1.00800           0
      5887 MEMB     44       POPC     H8S      HAL2     0.900000E-01   1.00800           0
      5888 MEMB     44       POPC     C29      CEL1    -0.150000       12.0110           0
      5889 MEMB     44       POPC     H91      HEL1     0.150000       1.00800           0
      5890 MEMB     44       POPC     C210     CEL1    -0.150000       12.0110           0
      5891 MEMB     44       POPC     H101     HEL1     0.150000       1.00800           0
      5892 MEMB     44       POPC     C211     CTL2    -0.180000       12.0110           0
      5893 MEMB     44       POPC     H11R     HAL2     0.900000E-01   1.00800           0
      5894 MEMB     44       POPC     H11S     HAL2     0.900000E-01   1.00800           0
      5895 MEMB     44       POPC     C212     CTL2    -0.180000       12.0110           0
      5896 MEMB     44       POPC     H12R     HAL2     0.900000E-01   1.00800           0
      5897 MEMB     44       POPC     H12S     HAL2     0.900000E-01   1.00800           0
      5898 MEMB     44       POPC     C213     CTL2    -0.180000       12.0110           0
      5899 MEMB     44       POPC     H13R     HAL2     0.900000E-01   1.00800           0
      5900 MEMB     44       POPC     H13S     HAL2     0.900000E-01   1.00800           0
      5901 MEMB     44       POPC     C214     CTL2    -0.180000       12.0110           0
      5902 MEMB     44       POPC     H14R     HAL2     0.900000E-01   1.00800           0
      5903 MEMB     44       POPC     H14S     HAL2     0.900000E-01   1.00800           0
      5904 MEMB     44       POPC     C215     CTL2    -0.180000       12.0110           0
      5905 MEMB     44       POPC     H15R     HAL2     0.900000E-01   1.00800           0
      5906 MEMB     44       POPC     H15S     HAL2     0.900000E-01   1.00800           0
      5907 MEMB     44       POPC     C216     CTL2    -0.180000       12.0110           0
      5908 MEMB     44       POPC     H16R     HAL2     0.900000E-01   1.00800           0
      5909 MEMB     44       POPC     H16S     HAL2     0.900000E-01   1.00800           0
      5910 MEMB     44       POPC     C217     CTL2    -0.180000       12.0110           0
      5911 MEMB     44       POPC     H17R     HAL2     0.900000E-01   1.00800           0
      5912 MEMB     44       POPC     H17S     HAL2     0.900000E-01   1.00800           0
      5913 MEMB     44       POPC     C218     CTL3    -0.270000       12.0110           0
      5914 MEMB     44       POPC     H18R     HAL3     0.900000E-01   1.00800           0
      5915 MEMB     44       POPC     H18S     HAL3     0.900000E-01   1.00800           0
      5916 MEMB     44       POPC     H18T     HAL3     0.900000E-01   1.00800           0
      5917 MEMB     44       POPC     C33      CTL2    -0.180000       12.0110           0
      5918 MEMB     44       POPC     H3X      HAL2     0.900000E-01   1.00800           0
      5919 MEMB     44       POPC     H3Y      HAL2     0.900000E-01   1.00800           0
      5920 MEMB     44       POPC     C34      CTL2    -0.180000       12.0110           0
      5921 MEMB     44       POPC     H4X      HAL2     0.900000E-01   1.00800           0
      5922 MEMB     44       POPC     H4Y      HAL2     0.900000E-01   1.00800           0
      5923 MEMB     44       POPC     C35      CTL2    -0.180000       12.0110           0
      5924 MEMB     44       POPC     H5X      HAL2     0.900000E-01   1.00800           0
      5925 MEMB     44       POPC     H5Y      HAL2     0.900000E-01   1.00800           0
      5926 MEMB     44       POPC     C36      CTL2    -0.180000       12.0110           0
      5927 MEMB     44       POPC     H6X      HAL2     0.900000E-01   1.00800           0
      5928 MEMB     44       POPC     H6Y      HAL2     0.900000E-01   1.00800           0
      5929 MEMB     44       POPC     C37      CTL2    -0.180000       12.0110           0
      5930 MEMB     44       POPC     H7X      HAL2     0.900000E-01   1.00800           0
      5931 MEMB     44       POPC     H7Y      HAL2     0.900000E-01   1.00800           0
      5932 MEMB     44       POPC     C38      CTL2    -0.180000       12.0110           0
      5933 MEMB     44       POPC     H8X      HAL2     0.900000E-01   1.00800           0
      5934 MEMB     44       POPC     H8Y      HAL2     0.900000E-01   1.00800           0
      5935 MEMB     44       POPC     C39      CTL2    -0.180000       12.0110           0
      5936 MEMB     44       POPC     H9X      HAL2     0.900000E-01   1.00800           0
      5937 MEMB     44       POPC     H9Y      HAL2     0.900000E-01   1.00800           0
      5938 MEMB     44       POPC     C310     CTL2    -0.180000       12.0110           0
      5939 MEMB     44       POPC     H10X     HAL2     0.900000E-01   1.00800           0
      5940 MEMB     44       POPC     H10Y     HAL2     0.900000E-01   1.00800           0
      5941 MEMB     44       POPC     C311     CTL2    -0.180000       12.0110           0
      5942 MEMB     44       POPC     H11X     HAL2     0.900000E-01   1.00800           0
      5943 MEMB     44       POPC     H11Y     HAL2     0.900000E-01   1.00800           0
      5944 MEMB     44       POPC     C312     CTL2    -0.180000       12.0110           0
      5945 MEMB     44       POPC     H12X     HAL2     0.900000E-01   1.00800           0
      5946 MEMB     44       POPC     H12Y     HAL2     0.900000E-01   1.00800           0
      5947 MEMB     44       POPC     C313     CTL2    -0.180000       12.0110           0
      5948 MEMB     44       POPC     H13X     HAL2     0.900000E-01   1.00800           0
      5949 MEMB     44       POPC     H13Y     HAL2     0.900000E-01   1.00800           0
      5950 MEMB     44       POPC     C314     CTL2    -0.180000       12.0110           0
      5951 MEMB     44       POPC     H14X     HAL2     0.900000E-01   1.00800           0
      5952 MEMB     44       POPC     H14Y     HAL2     0.900000E-01   1.00800           0
      5953 MEMB     44       POPC     C315     CTL2    -0.180000       12.0110           0
      5954 MEMB     44       POPC     H15X     HAL2     0.900000E-01   1.00800           0
      5955 MEMB     44       POPC     H15Y     HAL2     0.900000E-01   1.00800           0
      5956 MEMB     44       POPC     C316     CTL3    -0.270000       12.0110           0
      5957 MEMB     44       POPC     H16X     HAL3     0.900000E-01   1.00800           0
      5958 MEMB     44       POPC     H16Y     HAL3     0.900000E-01   1.00800           0
      5959 MEMB     44       POPC     H16Z     HAL3     0.900000E-01   1.00800           0
      5960 MEMB     45       POPC     N        NTL     -0.600000       14.0070           0
      5961 MEMB     45       POPC     C12      CTL2    -0.100000       12.0110           0
      5962 MEMB     45       POPC     H12A     HL       0.250000       1.00800           0
      5963 MEMB     45       POPC     H12B     HL       0.250000       1.00800           0
      5964 MEMB     45       POPC     C13      CTL5    -0.350000       12.0110           0
      5965 MEMB     45       POPC     H13A     HL       0.250000       1.00800           0
      5966 MEMB     45       POPC     H13B     HL       0.250000       1.00800           0
      5967 MEMB     45       POPC     H13C     HL       0.250000       1.00800           0
      5968 MEMB     45       POPC     C14      CTL5    -0.350000       12.0110           0
      5969 MEMB     45       POPC     H14A     HL       0.250000       1.00800           0
      5970 MEMB     45       POPC     H14B     HL       0.250000       1.00800           0
      5971 MEMB     45       POPC     H14C     HL       0.250000       1.00800           0
      5972 MEMB     45       POPC     C15      CTL5    -0.350000       12.0110           0
      5973 MEMB     45       POPC     H15A     HL       0.250000       1.00800           0
      5974 MEMB     45       POPC     H15B     HL       0.250000       1.00800           0
      5975 MEMB     45       POPC     H15C     HL       0.250000       1.00800           0
      5976 MEMB     45       POPC     C11      CTL2    -0.800000E-01   12.0110           0
      5977 MEMB     45       POPC     H11A     HAL2     0.900000E-01   1.00800           0
      5978 MEMB     45       POPC     H11B     HAL2     0.900000E-01   1.00800           0
      5979 MEMB     45       POPC     P        PL       1.500000       30.9740           0
      5980 MEMB     45       POPC     O13      O2L     -0.780000       15.9994           0
      5981 MEMB     45       POPC     O14      O2L     -0.780000       15.9994           0
      5982 MEMB     45       POPC     O12      OSLP    -0.570000       15.9994           0
      5983 MEMB     45       POPC     O11      OSLP    -0.570000       15.9994           0
      5984 MEMB     45       POPC     C1       CTL2    -0.800000E-01   12.0110           0
      5985 MEMB     45       POPC     HA       HAL2     0.900000E-01   1.00800           0
      5986 MEMB     45       POPC     HB       HAL2     0.900000E-01   1.00800           0
      5987 MEMB     45       POPC     C2       CTL1     0.170000       12.0110           0
      5988 MEMB     45       POPC     HS       HAL1     0.900000E-01   1.00800           0
      5989 MEMB     45       POPC     O21      OSL     -0.490000       15.9994           0
      5990 MEMB     45       POPC     C21      CL       0.900000       12.0110           0
      5991 MEMB     45       POPC     O22      OBL     -0.630000       15.9994           0
      5992 MEMB     45       POPC     C22      CTL2    -0.220000       12.0110           0
      5993 MEMB     45       POPC     H2R      HAL2     0.900000E-01   1.00800           0
      5994 MEMB     45       POPC     H2S      HAL2     0.900000E-01   1.00800           0
      5995 MEMB     45       POPC     C3       CTL2     0.800000E-01   12.0110           0
      5996 MEMB     45       POPC     HX       HAL2     0.900000E-01   1.00800           0
      5997 MEMB     45       POPC     HY       HAL2     0.900000E-01   1.00800           0
      5998 MEMB     45       POPC     O31      OSL     -0.490000       15.9994           0
      5999 MEMB     45       POPC     C31      CL       0.900000       12.0110           0
      6000 MEMB     45       POPC     O32      OBL     -0.630000       15.9994           0
      6001 MEMB     45       POPC     C32      CTL2    -0.220000       12.0110           0
      6002 MEMB     45       POPC     H2X      HAL2     0.900000E-01   1.00800           0
      6003 MEMB     45       POPC     H2Y      HAL2     0.900000E-01   1.00800           0
      6004 MEMB     45       POPC     C23      CTL2    -0.180000       12.0110           0
      6005 MEMB     45       POPC     H3R      HAL2     0.900000E-01   1.00800           0
      6006 MEMB     45       POPC     H3S      HAL2     0.900000E-01   1.00800           0
      6007 MEMB     45       POPC     C24      CTL2    -0.180000       12.0110           0
      6008 MEMB     45       POPC     H4R      HAL2     0.900000E-01   1.00800           0
      6009 MEMB     45       POPC     H4S      HAL2     0.900000E-01   1.00800           0
      6010 MEMB     45       POPC     C25      CTL2    -0.180000       12.0110           0
      6011 MEMB     45       POPC     H5R      HAL2     0.900000E-01   1.00800           0
      6012 MEMB     45       POPC     H5S      HAL2     0.900000E-01   1.00800           0
      6013 MEMB     45       POPC     C26      CTL2    -0.180000       12.0110           0
      6014 MEMB     45       POPC     H6R      HAL2     0.900000E-01   1.00800           0
      6015 MEMB     45       POPC     H6S      HAL2     0.900000E-01   1.00800           0
      6016 MEMB     45       POPC     C27      CTL2    -0.180000       12.0110           0
      6017 MEMB     45       POPC     H7R      HAL2     0.900000E-01   1.00800           0
      6018 MEMB     45       POPC     H7S      HAL2     0.900000E-01   1.00800           0
      6019 MEMB     45       POPC     C28      CTL2    -0.180000       12.0110           0
      6020 MEMB     45       POPC     H8R      HAL2     0.900000E-01   1.00800           0
      6021 MEMB     45       POPC     H8S      HAL2     0.900000E-01   1.00800           0
      6022 MEMB     45       POPC     C29      CEL1    -0.150000       12.0110           0
      6023 MEMB     45       POPC     H91      HEL1     0.150000       1.00800           0
      6024 MEMB     45       POPC     C210     CEL1    -0.150000       12.0110           0
      6025 MEMB     45       POPC     H101     HEL1     0.150000       1.00800           0
      6026 MEMB     45       POPC     C211     CTL2    -0.180000       12.0110           0
      6027 MEMB     45       POPC     H11R     HAL2     0.900000E-01   1.00800           0
      6028 MEMB     45       POPC     H11S     HAL2     0.900000E-01   1.00800           0
      6029 MEMB     45       POPC     C212     CTL2    -0.180000       12.0110           0
      6030 MEMB     45       POPC     H12R     HAL2     0.900000E-01   1.00800           0
      6031 MEMB     45       POPC     H12S     HAL2     0.900000E-01   1.00800           0
      6032 MEMB     45       POPC     C213     CTL2    -0.180000       12.0110           0
      6033 MEMB     45       POPC     H13R     HAL2     0.900000E-01   1.00800           0
      6034 MEMB     45       POPC     H13S     HAL2     0.900000E-01   1.00800           0
      6035 MEMB     45       POPC     C214     CTL2    -0.180000       12.0110           0
      6036 MEMB     45       POPC     H14R     HAL2     0.900000E-01   1.00800           0
      6037 MEMB     45       POPC     H14S     HAL2     0.900000E-01   1.00800           0
      6038 MEMB     45       POPC     C215     CTL2    -0.180000       12.0110           0
      6039 MEMB     45       POPC     H15R     HAL2     0.900000E-01   1.00800           0
      6040 MEMB     45       POPC     H15S     HAL2     0.900000E-01   1.00800           0
      6041 MEMB     45       POPC     C216     CTL2    -0.180000       12.0110           0
      6042 MEMB     45       POPC     H16R     HAL2     0.900000E-01   1.00800           0
      6043 MEMB     45       POPC     H16S     HAL2     0.900000E-01   1.00800           0
      6044 MEMB     45       POPC     C217     CTL2    -0.180000       12.0110           0
      6045 MEMB     45       POPC     H17R     HAL2     0.900000E-01   1.00800           0
      6046 MEMB     45       POPC     H17S     HAL2     0.900000E-01   1.00800           0
      6047 MEMB     45       POPC     C218     CTL3    -0.270000       12.0110           0
      6048 MEMB     45       POPC     H18R     HAL3     0.900000E-01   1.00800           0
      6049 MEMB     45       POPC     H18S     HAL3     0.900000E-01   1.00800           0
      6050 MEMB     45       POPC     H18T     HAL3     0.900000E-01   1.00800           0
      6051 MEMB     45       POPC     C33      CTL2    -0.180000       12.0110           0
      6052 MEMB     45       POPC     H3X      HAL2     0.900000E-01   1.00800           0
      6053 MEMB     45       POPC     H3Y      HAL2     0.900000E-01   1.00800           0
      6054 MEMB     45       POPC     C34      CTL2    -0.180000       12.0110           0
      6055 MEMB     45       POPC     H4X      HAL2     0.900000E-01   1.00800           0
      6056 MEMB     45       POPC     H4Y      HAL2     0.900000E-01   1.00800           0
      6057 MEMB     45       POPC     C35      CTL2    -0.180000       12.0110           0
      6058 MEMB     45       POPC     H5X      HAL2     0.900000E-01   1.00800           0
      6059 MEMB     45       POPC     H5Y      HAL2     0.900000E-01   1.00800           0
      6060 MEMB     45       POPC     C36      CTL2    -0.180000       12.0110           0
      6061 MEMB     45       POPC     H6X      HAL2     0.900000E-01   1.00800           0
      6062 MEMB     45       POPC     H6Y      HAL2     0.900000E-01   1.00800           0
      6063 MEMB     45       POPC     C37      CTL2    -0.180000       12.0110           0
      6064 MEMB     45       POPC     H7X      HAL2     0.900000E-01   1.00800           0
      6065 MEMB     45       POPC     H7Y      HAL2     0.900000E-01   1.00800           0
      6066 MEMB     45       POPC     C38      CTL2    -0.180000       12.0110           0
      6067 MEMB     45       POPC     H8X      HAL2     0.900000E-01   1.00800           0
      6068 MEMB     45       POPC     H8Y      HAL2     0.900000E-01   1.00800           0
      6069 MEMB     45       POPC     C39      CTL2    -0.180000       12.0110           0
      6070 MEMB     45       POPC     H9X      HAL2     0.900000E-01   1.00800           0
      6071 MEMB     45       POPC     H9Y      HAL2     0.900000E-01   1.00800           0
      6072 MEMB     45       POPC     C310     CTL2    -0.180000       12.0110           0
      6073 MEMB     45       POPC     H10X     HAL2     0.900000E-01   1.00800           0
      6074 MEMB     45       POPC     H10Y     HAL2     0.900000E-01   1.00800           0
      6075 MEMB     45       POPC     C311     CTL2    -0.180000       12.0110           0
      6076 MEMB     45       POPC     H11X     HAL2     0.900000E-01   1.00800           0
      6077 MEMB     45       POPC     H11Y     HAL2     0.900000E-01   1.00800           0
      6078 MEMB     45       POPC     C312     CTL2    -0.180000       12.0110           0
      6079 MEMB     45       POPC     H12X     HAL2     0.900000E-01   1.00800           0
      6080 MEMB     45       POPC     H12Y     HAL2     0.900000E-01   1.00800           0
      6081 MEMB     45       POPC     C313     CTL2    -0.180000       12.0110           0
      6082 MEMB     45       POPC     H13X     HAL2     0.900000E-01   1.00800           0
      6083 MEMB     45       POPC     H13Y     HAL2     0.900000E-01   1.00800           0
      6084 MEMB     45       POPC     C314     CTL2    -0.180000       12.0110           0
      6085 MEMB     45       POPC     H14X     HAL2     0.900000E-01   1.00800           0
      6086 MEMB     45       POPC     H14Y     HAL2     0.900000E-01   1.00800           0
      6087 MEMB     45       POPC     C315     CTL2    -0.180000       12.0110           0
      6088 MEMB     45       POPC     H15X     HAL2     0.900000E-01   1.00800           0
      6089 MEMB     45       POPC     H15Y     HAL2     0.900000E-01   1.00800           0
      6090 MEMB     45       POPC     C316     CTL3    -0.270000       12.0110           0
      6091 MEMB     45       POPC     H16X     HAL3     0.900000E-01   1.00800           0
      6092 MEMB     45       POPC     H16Y     HAL3     0.900000E-01   1.00800           0
      6093 MEMB     45       POPC     H16Z     HAL3     0.900000E-01   1.00800           0
      6094 MEMB     46       POPC     N        NTL     -0.600000       14.0070           0
      6095 MEMB     46       POPC     C12      CTL2    -0.100000       12.0110           0
      6096 MEMB     46       POPC     H12A     HL       0.250000       1.00800           0
      6097 MEMB     46       POPC     H12B     HL       0.250000       1.00800           0
      6098 MEMB     46       POPC     C13      CTL5    -0.350000       12.0110           0
      6099 MEMB     46       POPC     H13A     HL       0.250000       1.00800           0
      6100 MEMB     46       POPC     H13B     HL       0.250000       1.00800           0
      6101 MEMB     46       POPC     H13C     HL       0.250000       1.00800           0
      6102 MEMB     46       POPC     C14      CTL5    -0.350000       12.0110           0
      6103 MEMB     46       POPC     H14A     HL       0.250000       1.00800           0
      6104 MEMB     46       POPC     H14B     HL       0.250000       1.00800           0
      6105 MEMB     46       POPC     H14C     HL       0.250000       1.00800           0
      6106 MEMB     46       POPC     C15      CTL5    -0.350000       12.0110           0
      6107 MEMB     46       POPC     H15A     HL       0.250000       1.00800           0
      6108 MEMB     46       POPC     H15B     HL       0.250000       1.00800           0
      6109 MEMB     46       POPC     H15C     HL       0.250000       1.00800           0
      6110 MEMB     46       POPC     C11      CTL2    -0.800000E-01   12.0110           0
      6111 MEMB     46       POPC     H11A     HAL2     0.900000E-01   1.00800           0
      6112 MEMB     46       POPC     H11B     HAL2     0.900000E-01   1.00800           0
      6113 MEMB     46       POPC     P        PL       1.500000       30.9740           0
      6114 MEMB     46       POPC     O13      O2L     -0.780000       15.9994           0
      6115 MEMB     46       POPC     O14      O2L     -0.780000       15.9994           0
      6116 MEMB     46       POPC     O12      OSLP    -0.570000       15.9994           0
      6117 MEMB     46       POPC     O11      OSLP    -0.570000       15.9994           0
      6118 MEMB     46       POPC     C1       CTL2    -0.800000E-01   12.0110           0
      6119 MEMB     46       POPC     HA       HAL2     0.900000E-01   1.00800           0
      6120 MEMB     46       POPC     HB       HAL2     0.900000E-01   1.00800           0
      6121 MEMB     46       POPC     C2       CTL1     0.170000       12.0110           0
      6122 MEMB     46       POPC     HS       HAL1     0.900000E-01   1.00800           0
      6123 MEMB     46       POPC     O21      OSL     -0.490000       15.9994           0
      6124 MEMB     46       POPC     C21      CL       0.900000       12.0110           0
      6125 MEMB     46       POPC     O22      OBL     -0.630000       15.9994           0
      6126 MEMB     46       POPC     C22      CTL2    -0.220000       12.0110           0
      6127 MEMB     46       POPC     H2R      HAL2     0.900000E-01   1.00800           0
      6128 MEMB     46       POPC     H2S      HAL2     0.900000E-01   1.00800           0
      6129 MEMB     46       POPC     C3       CTL2     0.800000E-01   12.0110           0
      6130 MEMB     46       POPC     HX       HAL2     0.900000E-01   1.00800           0
      6131 MEMB     46       POPC     HY       HAL2     0.900000E-01   1.00800           0
      6132 MEMB     46       POPC     O31      OSL     -0.490000       15.9994           0
      6133 MEMB     46       POPC     C31      CL       0.900000       12.0110           0
      6134 MEMB     46       POPC     O32      OBL     -0.630000       15.9994           0
      6135 MEMB     46       POPC     C32      CTL2    -0.220000       12.0110           0
      6136 MEMB     46       POPC     H2X      HAL2     0.900000E-01   1.00800           0
      6137 MEMB     46       POPC     H2Y      HAL2     0.900000E-01   1.00800           0
      6138 MEMB     46       POPC     C23      CTL2    -0.180000       12.0110           0
      6139 MEMB     46       POPC     H3R      HAL2     0.900000E-01   1.00800           0
      6140 MEMB     46       POPC     H3S      HAL2     0.900000E-01   1.00800           0
      6141 MEMB     46       POPC     C24      CTL2    -0.180000       12.0110           0
      6142 MEMB     46       POPC     H4R      HAL2     0.900000E-01   1.00800           0
      6143 MEMB     46       POPC     H4S      HAL2     0.900000E-01   1.00800           0
      6144 MEMB     46       POPC     C25      CTL2    -0.180000       12.0110           0
      6145 MEMB     46       POPC     H5R      HAL2     0.900000E-01   1.00800           0
      6146 MEMB     46       POPC     H5S      HAL2     0.900000E-01   1.00800           0
      6147 MEMB     46       POPC     C26      CTL2    -0.180000       12.0110           0
      6148 MEMB     46       POPC     H6R      HAL2     0.900000E-01   1.00800           0
      6149 MEMB     46       POPC     H6S      HAL2     0.900000E-01   1.00800           0
      6150 MEMB     46       POPC     C27      CTL2    -0.180000       12.0110           0
      6151 MEMB     46       POPC     H7R      HAL2     0.900000E-01   1.00800           0
      6152 MEMB     46       POPC     H7S      HAL2     0.900000E-01   1.00800           0
      6153 MEMB     46       POPC     C28      CTL2    -0.180000       12.0110           0
      6154 MEMB     46       POPC     H8R      HAL2     0.900000E-01   1.00800           0
      6155 MEMB     46       POPC     H8S      HAL2     0.900000E-01   1.00800           0
      6156 MEMB     46       POPC     C29      CEL1    -0.150000       12.0110           0
      6157 MEMB     46       POPC     H91      HEL1     0.150000       1.00800           0
      6158 MEMB     46       POPC     C210     CEL1    -0.150000       12.0110           0
      6159 MEMB     46       POPC     H101     HEL1     0.150000       1.00800           0
      6160 MEMB     46       POPC     C211     CTL2    -0.180000       12.0110           0
      6161 MEMB     46       POPC     H11R     HAL2     0.900000E-01   1.00800           0
      6162 MEMB     46       POPC     H11S     HAL2     0.900000E-01   1.00800           0
      6163 MEMB     46       POPC     C212     CTL2    -0.180000       12.0110           0
      6164 MEMB     46       POPC     H12R     HAL2     0.900000E-01   1.00800           0
      6165 MEMB     46       POPC     H12S     HAL2     0.900000E-01   1.00800           0
      6166 MEMB     46       POPC     C213     CTL2    -0.180000       12.0110           0
      6167 MEMB     46       POPC     H13R     HAL2     0.900000E-01   1.00800           0
      6168 MEMB     46       POPC     H13S     HAL2     0.900000E-01   1.00800           0
      6169 MEMB     46       POPC     C214     CTL2    -0.180000       12.0110           0
      6170 MEMB     46       POPC     H14R     HAL2     0.900000E-01   1.00800           0
      6171 MEMB     46       POPC     H14S     HAL2     0.900000E-01   1.00800           0
      6172 MEMB     46       POPC     C215     CTL2    -0.180000       12.0110           0
      6173 MEMB     46       POPC     H15R     HAL2     0.900000E-01   1.00800           0
      6174 MEMB     46       POPC     H15S     HAL2     0.900000E-01   1.00800           0
      6175 MEMB     46       POPC     C216     CTL2    -0.180000       12.0110           0
      6176 MEMB     46       POPC     H16R     HAL2     0.900000E-01   1.00800           0
      6177 MEMB     46       POPC     H16S     HAL2     0.900000E-01   1.00800           0
      6178 MEMB     46       POPC     C217     CTL2    -0.180000       12.0110           0
      6179 MEMB     46       POPC     H17R     HAL2     0.900000E-01   1.00800           0
      6180 MEMB     46       POPC     H17S     HAL2     0.900000E-01   1.00800           0
      6181 MEMB     46       POPC     C218     CTL3    -0.270000       12.0110           0
      6182 MEMB     46       POPC     H18R     HAL3     0.900000E-01   1.00800           0
      6183 MEMB     46       POPC     H18S     HAL3     0.900000E-01   1.00800           0
      6184 MEMB     46       POPC     H18T     HAL3     0.900000E-01   1.00800           0
      6185 MEMB     46       POPC     C33      CTL2    -0.180000       12.0110           0
      6186 MEMB     46       POPC     H3X      HAL2     0.900000E-01   1.00800           0
      6187 MEMB     46       POPC     H3Y      HAL2     0.900000E-01   1.00800           0
      6188 MEMB     46       POPC     C34      CTL2    -0.180000       12.0110           0
      6189 MEMB     46       POPC     H4X      HAL2     0.900000E-01   1.00800           0
      6190 MEMB     46       POPC     H4Y      HAL2     0.900000E-01   1.00800           0
      6191 MEMB     46       POPC     C35      CTL2    -0.180000       12.0110           0
      6192 MEMB     46       POPC     H5X      HAL2     0.900000E-01   1.00800           0
      6193 MEMB     46       POPC     H5Y      HAL2     0.900000E-01   1.00800           0
      6194 MEMB     46       POPC     C36      CTL2    -0.180000       12.0110           0
      6195 MEMB     46       POPC     H6X      HAL2     0.900000E-01   1.00800           0
      6196 MEMB     46       POPC     H6Y      HAL2     0.900000E-01   1.00800           0
      6197 MEMB     46       POPC     C37      CTL2    -0.180000       12.0110           0
      6198 MEMB     46       POPC     H7X      HAL2     0.900000E-01   1.00800           0
      6199 MEMB     46       POPC     H7Y      HAL2     0.900000E-01   1.00800           0
      6200 MEMB     46       POPC     C38      CTL2    -0.180000       12.0110           0
      6201 MEMB     46       POPC     H8X      HAL2     0.900000E-01   1.00800           0
      6202 MEMB     46       POPC     H8Y      HAL2     0.900000E-01   1.00800           0
      6203 MEMB     46       POPC     C39      CTL2    -0.180000       12.0110           0
      6204 MEMB     46       POPC     H9X      HAL2     0.900000E-01   1.00800           0
      6205 MEMB     46       POPC     H9Y      HAL2     0.900000E-01   1.00800           0
      6206 MEMB     46       POPC     C310     CTL2    -0.180000       12.0110           0
      6207 MEMB     46       POPC     H10X     HAL2     0.900000E-01   1.00800           0
      6208 MEMB     46       POPC     H10Y     HAL2     0.900000E-01   1.00800           0
      6209 MEMB     46       POPC     C311     CTL2    -0.180000       12.0110           0
      6210 MEMB     46       POPC     H11X     HAL2     0.900000E-01   1.00800           0
      6211 MEMB     46       POPC     H11Y     HAL2     0.900000E-01   1.00800           0
      6212 MEMB     46       POPC     C312     CTL2    -0.180000       12.0110           0
      6213 MEMB     46       POPC     H12X     HAL2     0.900000E-01   1.00800           0
      6214 MEMB     46       POPC     H12Y     HAL2     0.900000E-01   1.00800           0
      6215 MEMB     46       POPC     C313     CTL2    -0.180000       12.0110           0
      6216 MEMB     46       POPC     H13X     HAL2     0.900000E-01   1.00800           0
      6217 MEMB     46       POPC     H13Y     HAL2     0.900000E-01   1.00800           0
      6218 MEMB     46       POPC     C314     CTL2    -0.180000       12.0110           0
      6219 MEMB     46       POPC     H14X     HAL2     0.900000E-01   1.00800           0
      6220 MEMB     46       POPC     H14Y     HAL2     0.900000E-01   1.00800           0
      6221 MEMB     46       POPC     C315     CTL2    -0.180000       12.0110           0
      6222 MEMB     46       POPC     H15X     HAL2     0.900000E-01   1.00800           0
      6223 MEMB     46       POPC     H15Y     HAL2     0.900000E-01   1.00800           0
      6224 MEMB     46       POPC     C316     CTL3    -0.270000       12.0110           0
      6225 MEMB     46       POPC     H16X     HAL3     0.900000E-01   1.00800           0
      6226 MEMB     46       POPC     H16Y     HAL3     0.900000E-01   1.00800           0
      6227 MEMB     46       POPC     H16Z     HAL3     0.900000E-01   1.00800           0
      6228 MEMB     47       POPC     N        NTL     -0.600000       14.0070           0
      6229 MEMB     47       POPC     C12      CTL2    -0.100000       12.0110           0
      6230 MEMB     47       POPC     H12A     HL       0.250000       1.00800           0
      6231 MEMB     47       POPC     H12B     HL       0.250000       1.00800           0
      6232 MEMB     47       POPC     C13      CTL5    -0.350000       12.0110           0
      6233 MEMB     47       POPC     H13A     HL       0.250000       1.00800           0
      6234 MEMB     47       POPC     H13B     HL       0.250000       1.00800           0
      6235 MEMB     47       POPC     H13C     HL       0.250000       1.00800           0
      6236 MEMB     47       POPC     C14      CTL5    -0.350000       12.0110           0
      6237 MEMB     47       POPC     H14A     HL       0.250000       1.00800           0
      6238 MEMB     47       POPC     H14B     HL       0.250000       1.00800           0
      6239 MEMB     47       POPC     H14C     HL       0.250000       1.00800           0
      6240 MEMB     47       POPC     C15      CTL5    -0.350000       12.0110           0
      6241 MEMB     47       POPC     H15A     HL       0.250000       1.00800           0
      6242 MEMB     47       POPC     H15B     HL       0.250000       1.00800           0
      6243 MEMB     47       POPC     H15C     HL       0.250000       1.00800           0
      6244 MEMB     47       POPC     C11      CTL2    -0.800000E-01   12.0110           0
      6245 MEMB     47       POPC     H11A     HAL2     0.900000E-01   1.00800           0
      6246 MEMB     47       POPC     H11B     HAL2     0.900000E-01   1.00800           0
      6247 MEMB     47       POPC     P        PL       1.500000       30.9740           0
      6248 MEMB     47       POPC     O13      O2L     -0.780000       15.9994           0
      6249 MEMB     47       POPC     O14      O2L     -0.780000       15.9994           0
      6250 MEMB     47       POPC     O12      OSLP    -0.570000       15.9994           0
      6251 MEMB     47       POPC     O11      OSLP    -0.570000       15.9994           0
      6252 MEMB     47       POPC     C1       CTL2    -0.800000E-01   12.0110           0
      6253 MEMB     47       POPC     HA       HAL2     0.900000E-01   1.00800           0
      6254 MEMB     47       POPC     HB       HAL2     0.900000E-01   1.00800           0
      6255 MEMB     47       POPC     C2       CTL1     0.170000       12.0110           0
      6256 MEMB     47       POPC     HS       HAL1     0.900000E-01   1.00800           0
      6257 MEMB     47       POPC     O21      OSL     -0.490000       15.9994           0
      6258 MEMB     47       POPC     C21      CL       0.900000       12.0110           0
      6259 MEMB     47       POPC     O22      OBL     -0.630000       15.9994           0
      6260 MEMB     47       POPC     C22      CTL2    -0.220000       12.0110           0
      6261 MEMB     47       POPC     H2R      HAL2     0.900000E-01   1.00800           0
      6262 MEMB     47       POPC     H2S      HAL2     0.900000E-01   1.00800           0
      6263 MEMB     47       POPC     C3       CTL2     0.800000E-01   12.0110           0
      6264 MEMB     47       POPC     HX       HAL2     0.900000E-01   1.00800           0
      6265 MEMB     47       POPC     HY       HAL2     0.900000E-01   1.00800           0
      6266 MEMB     47       POPC     O31      OSL     -0.490000       15.9994           0
      6267 MEMB     47       POPC     C31      CL       0.900000       12.0110           0
      6268 MEMB     47       POPC     O32      OBL     -0.630000       15.9994           0
      6269 MEMB     47       POPC     C32      CTL2    -0.220000       12.0110           0
      6270 MEMB     47       POPC     H2X      HAL2     0.900000E-01   1.00800           0
      6271 MEMB     47       POPC     H2Y      HAL2     0.900000E-01   1.00800           0
      6272 MEMB     47       POPC     C23      CTL2    -0.180000       12.0110           0
      6273 MEMB     47       POPC     H3R      HAL2     0.900000E-01   1.00800           0
      6274 MEMB     47       POPC     H3S      HAL2     0.900000E-01   1.00800           0
      6275 MEMB     47       POPC     C24      CTL2    -0.180000       12.0110           0
      6276 MEMB     47       POPC     H4R      HAL2     0.900000E-01   1.00800           0
      6277 MEMB     47       POPC     H4S      HAL2     0.900000E-01   1.00800           0
      6278 MEMB     47       POPC     C25      CTL2    -0.180000       12.0110           0
      6279 MEMB     47       POPC     H5R      HAL2     0.900000E-01   1.00800           0
      6280 MEMB     47       POPC     H5S      HAL2     0.900000E-01   1.00800           0
      6281 MEMB     47       POPC     C26      CTL2    -0.180000       12.0110           0
      6282 MEMB     47       POPC     H6R      HAL2     0.900000E-01   1.00800           0
      6283 MEMB     47       POPC     H6S      HAL2     0.900000E-01   1.00800           0
      6284 MEMB     47       POPC     C27      CTL2    -0.180000       12.0110           0
      6285 MEMB     47       POPC     H7R      HAL2     0.900000E-01   1.00800           0
      6286 MEMB     47       POPC     H7S      HAL2     0.900000E-01   1.00800           0
      6287 MEMB     47       POPC     C28      CTL2    -0.180000       12.0110           0
      6288 MEMB     47       POPC     H8R      HAL2     0.900000E-01   1.00800           0
      6289 MEMB     47       POPC     H8S      HAL2     0.900000E-01   1.00800           0
      6290 MEMB     47       POPC     C29      CEL1    -0.150000       12.0110           0
      6291 MEMB     47       POPC     H91      HEL1     0.150000       1.00800           0
      6292 MEMB     47       POPC     C210     CEL1    -0.150000       12.0110           0
      6293 MEMB     47       POPC     H101     HEL1     0.150000       1.00800           0
      6294 MEMB     47       POPC     C211     CTL2    -0.180000       12.0110           0
      6295 MEMB     47       POPC     H11R     HAL2     0.900000E-01   1.00800           0
      6296 MEMB     47       POPC     H11S     HAL2     0.900000E-01   1.00800           0
      6297 MEMB     47       POPC     C212     CTL2    -0.180000       12.0110           0
      6298 MEMB     47       POPC     H12R     HAL2     0.900000E-01   1.00800           0
      6299 MEMB     47       POPC     H12S     HAL2     0.900000E-01   1.00800           0
      6300 MEMB     47       POPC     C213     CTL2    -0.180000       12.0110           0
      6301 MEMB     47       POPC     H13R     HAL2     0.900000E-01   1.00800           0
      6302 MEMB     47       POPC     H13S     HAL2     0.900000E-01   1.00800           0
      6303 MEMB     47       POPC     C214     CTL2    -0.180000       12.0110           0
      6304 MEMB     47       POPC     H14R     HAL2     0.900000E-01   1.00800           0
      6305 MEMB     47       POPC     H14S     HAL2     0.900000E-01   1.00800           0
      6306 MEMB     47       POPC     C215     CTL2    -0.180000       12.0110           0
      6307 MEMB     47       POPC     H15R     HAL2     0.900000E-01   1.00800           0
      6308 MEMB     47       POPC     H15S     HAL2     0.900000E-01   1.00800           0
      6309 MEMB     47       POPC     C216     CTL2    -0.180000       12.0110           0
      6310 MEMB     47       POPC     H16R     HAL2     0.900000E-01   1.00800           0
      6311 MEMB     47       POPC     H16S     HAL2     0.900000E-01   1.00800           0
      6312 MEMB     47       POPC     C217     CTL2    -0.180000       12.0110           0
      6313 MEMB     47       POPC     H17R     HAL2     0.900000E-01   1.00800           0
      6314 MEMB     47       POPC     H17S     HAL2     0.900000E-01   1.00800           0
      6315 MEMB     47       POPC     C218     CTL3    -0.270000       12.0110           0
      6316 MEMB     47       POPC     H18R     HAL3     0.900000E-01   1.00800           0
      6317 MEMB     47       POPC     H18S     HAL3     0.900000E-01   1.00800           0
      6318 MEMB     47       POPC     H18T     HAL3     0.900000E-01   1.00800           0
      6319 MEMB     47       POPC     C33      CTL2    -0.180000       12.0110           0
      6320 MEMB     47       POPC     H3X      HAL2     0.900000E-01   1.00800           0
      6321 MEMB     47       POPC     H3Y      HAL2     0.900000E-01   1.00800           0
      6322 MEMB     47       POPC     C34      CTL2    -0.180000       12.0110           0
      6323 MEMB     47       POPC     H4X      HAL2     0.900000E-01   1.00800           0
      6324 MEMB     47       POPC     H4Y      HAL2     0.900000E-01   1.00800           0
      6325 MEMB     47       POPC     C35      CTL2    -0.180000       12.0110           0
      6326 MEMB     47       POPC     H5X      HAL2     0.900000E-01   1.00800           0
      6327 MEMB     47       POPC     H5Y      HAL2     0.900000E-01   1.00800           0
      6328 MEMB     47       POPC     C36      CTL2    -0.180000       12.0110           0
      6329 MEMB     47       POPC     H6X      HAL2     0.900000E-01   1.00800           0
      6330 MEMB     47       POPC     H6Y      HAL2     0.900000E-01   1.00800           0
      6331 MEMB     47       POPC     C37      CTL2    -0.180000       12.0110           0
      6332 MEMB     47       POPC     H7X      HAL2     0.900000E-01   1.00800           0
      6333 MEMB     47       POPC     H7Y      HAL2     0.900000E-01   1.00800           0
      6334 MEMB     47       POPC     C38      CTL2    -0.180000       12.0110           0
      6335 MEMB     47       POPC     H8X      HAL2     0.900000E-01   1.00800           0
      6336 MEMB     47       POPC     H8Y      HAL2     0.900000E-01   1.00800           0
      6337 MEMB     47       POPC     C39      CTL2    -0.180000       12.0110           0
      6338 MEMB     47       POPC     H9X      HAL2     0.900000E-01   1.00800           0
      6339 MEMB     47       POPC     H9Y      HAL2     0.900000E-01   1.00800           0
      6340 MEMB     47       POPC     C310     CTL2    -0.180000       12.0110           0
      6341 MEMB     47       POPC     H10X     HAL2     0.900000E-01   1.00800           0
      6342 MEMB     47       POPC     H10Y     HAL2     0.900000E-01   1.00800           0
      6343 MEMB     47       POPC     C311     CTL2    -0.180000       12.0110           0
      6344 MEMB     47       POPC     H11X     HAL2     0.900000E-01   1.00800           0
      6345 MEMB     47       POPC     H11Y     HAL2     0.900000E-01   1.00800           0
      6346 MEMB     47       POPC     C312     CTL2    -0.180000       12.0110           0
      6347 MEMB     47       POPC     H12X     HAL2     0.900000E-01   1.00800           0
      6348 MEMB     47       POPC     H12Y     HAL2     0.900000E-01   1.00800           0
      6349 MEMB     47       POPC     C313     CTL2    -0.180000       12.0110           0
      6350 MEMB     47       POPC     H13X     HAL2     0.900000E-01   1.00800           0
      6351 MEMB     47       POPC     H13Y     HAL2     0.900000E-01   1.00800           0
      6352 MEMB     47       POPC     C314     CTL2    -0.180000       12.0110           0
      6353 MEMB     47       POPC     H14X     HAL2     0.900000E-01   1.00800           0
      6354 MEMB     47       POPC     H14Y     HAL2     0.900000E-01   1.00800           0
      6355 MEMB     47       POPC     C315     CTL2    -0.180000       12.0110           0
      6356 MEMB     47       POPC     H15X     HAL2     0.900000E-01   1.00800           0
      6357 MEMB     47       POPC     H15Y     HAL2     0.900000E-01   1.00800           0
      6358 MEMB     47       POPC     C316     CTL3    -0.270000       12.0110           0
      6359 MEMB     47       POPC     H16X     HAL3     0.900000E-01   1.00800           0
      6360 MEMB     47       POPC     H16Y     HAL3     0.900000E-01   1.00800           0
      6361 MEMB     47       POPC     H16Z     HAL3     0.900000E-01   1.00800           0
      6362 MEMB     48       POPC     N        NTL     -0.600000       14.0070           0
      6363 MEMB     48       POPC     C12      CTL2    -0.100000       12.0110           0
      6364 MEMB     48       POPC     H12A     HL       0.250000       1.00800           0
      6365 MEMB     48       POPC     H12B     HL       0.250000       1.00800           0
      6366 MEMB     48       POPC     C13      CTL5    -0.350000       12.0110           0
      6367 MEMB     48       POPC     H13A     HL       0.250000       1.00800           0
      6368 MEMB     48       POPC     H13B     HL       0.250000       1.00800           0
      6369 MEMB     48       POPC     H13C     HL       0.250000       1.00800           0
      6370 MEMB     48       POPC     C14      CTL5    -0.350000       12.0110           0
      6371 MEMB     48       POPC     H14A     HL       0.250000       1.00800           0
      6372 MEMB     48       POPC     H14B     HL       0.250000       1.00800           0
      6373 MEMB     48       POPC     H14C     HL       0.250000       1.00800           0
      6374 MEMB     48       POPC     C15      CTL5    -0.350000       12.0110           0
      6375 MEMB     48       POPC     H15A     HL       0.250000       1.00800           0
      6376 MEMB     48       POPC     H15B     HL       0.250000       1.00800           0
      6377 MEMB     48       POPC     H15C     HL       0.250000       1.00800           0
      6378 MEMB     48       POPC     C11      CTL2    -0.800000E-01   12.0110           0
      6379 MEMB     48       POPC     H11A     HAL2     0.900000E-01   1.00800           0
      6380 MEMB     48       POPC     H11B     HAL2     0.900000E-01   1.00800           0
      6381 MEMB     48       POPC     P        PL       1.500000       30.9740           0
      6382 MEMB     48       POPC     O13      O2L     -0.780000       15.9994           0
      6383 MEMB     48       POPC     O14      O2L     -0.780000       15.9994           0
      6384 MEMB     48       POPC     O12      OSLP    -0.570000       15.9994           0
      6385 MEMB     48       POPC     O11      OSLP    -0.570000       15.9994           0
      6386 MEMB     48       POPC     C1       CTL2    -0.800000E-01   12.0110           0
      6387 MEMB     48       POPC     HA       HAL2     0.900000E-01   1.00800           0
      6388 MEMB     48       POPC     HB       HAL2     0.900000E-01   1.00800           0
      6389 MEMB     48       POPC     C2       CTL1     0.170000       12.0110           0
      6390 MEMB     48       POPC     HS       HAL1     0.900000E-01   1.00800           0
      6391 MEMB     48       POPC     O21      OSL     -0.490000       15.9994           0
      6392 MEMB     48       POPC     C21      CL       0.900000       12.0110           0
      6393 MEMB     48       POPC     O22      OBL     -0.630000       15.9994           0
      6394 MEMB     48       POPC     C22      CTL2    -0.220000       12.0110           0
      6395 MEMB     48       POPC     H2R      HAL2     0.900000E-01   1.00800           0
      6396 MEMB     48       POPC     H2S      HAL2     0.900000E-01   1.00800           0
      6397 MEMB     48       POPC     C3       CTL2     0.800000E-01   12.0110           0
      6398 MEMB     48       POPC     HX       HAL2     0.900000E-01   1.00800           0
      6399 MEMB     48       POPC     HY       HAL2     0.900000E-01   1.00800           0
      6400 MEMB     48       POPC     O31      OSL     -0.490000       15.9994           0
      6401 MEMB     48       POPC     C31      CL       0.900000       12.0110           0
      6402 MEMB     48       POPC     O32      OBL     -0.630000       15.9994           0
      6403 MEMB     48       POPC     C32      CTL2    -0.220000       12.0110           0
      6404 MEMB     48       POPC     H2X      HAL2     0.900000E-01   1.00800           0
      6405 MEMB     48       POPC     H2Y      HAL2     0.900000E-01   1.00800           0
      6406 MEMB     48       POPC     C23      CTL2    -0.180000       12.0110           0
      6407 MEMB     48       POPC     H3R      HAL2     0.900000E-01   1.00800           0
      6408 MEMB     48       POPC     H3S      HAL2     0.900000E-01   1.00800           0
      6409 MEMB     48       POPC     C24      CTL2    -0.180000       12.0110           0
      6410 MEMB     48       POPC     H4R      HAL2     0.900000E-01   1.00800           0
      6411 MEMB     48       POPC     H4S      HAL2     0.900000E-01   1.00800           0
      6412 MEMB     48       POPC     C25      CTL2    -0.180000       12.0110           0
      6413 MEMB     48       POPC     H5R      HAL2     0.900000E-01   1.00800           0
      6414 MEMB     48       POPC     H5S      HAL2     0.900000E-01   1.00800           0
      6415 MEMB     48       POPC     C26      CTL2    -0.180000       12.0110           0
      6416 MEMB     48       POPC     H6R      HAL2     0.900000E-01   1.00800           0
      6417 MEMB     48       POPC     H6S      HAL2     0.900000E-01   1.00800           0
      6418 MEMB     48       POPC     C27      CTL2    -0.180000       12.0110           0
      6419 MEMB     48       POPC     H7R      HAL2     0.900000E-01   1.00800           0
      6420 MEMB     48       POPC     H7S      HAL2     0.900000E-01   1.00800           0
      6421 MEMB     48       POPC     C28      CTL2    -0.180000       12.0110           0
      6422 MEMB     48       POPC     H8R      HAL2     0.900000E-01   1.00800           0
      6423 MEMB     48       POPC     H8S      HAL2     0.900000E-01   1.00800           0
      6424 MEMB     48       POPC     C29      CEL1    -0.150000       12.0110           0
      6425 MEMB     48       POPC     H91      HEL1     0.150000       1.00800           0
      6426 MEMB     48       POPC     C210     CEL1    -0.150000       12.0110           0
      6427 MEMB     48       POPC     H101     HEL1     0.150000       1.00800           0
      6428 MEMB     48       POPC     C211     CTL2    -0.180000       12.0110           0
      6429 MEMB     48       POPC     H11R     HAL2     0.900000E-01   1.00800           0
      6430 MEMB     48       POPC     H11S     HAL2     0.900000E-01   1.00800           0
      6431 MEMB     48       POPC     C212     CTL2    -0.180000       12.0110           0
      6432 MEMB     48       POPC     H12R     HAL2     0.900000E-01   1.00800           0
      6433 MEMB     48       POPC     H12S     HAL2     0.900000E-01   1.00800           0
      6434 MEMB     48       POPC     C213     CTL2    -0.180000       12.0110           0
      6435 MEMB     48       POPC     H13R     HAL2     0.900000E-01   1.00800           0
      6436 MEMB     48       POPC     H13S     HAL2     0.900000E-01   1.00800           0
      6437 MEMB     48       POPC     C214     CTL2    -0.180000       12.0110           0
      6438 MEMB     48       POPC     H14R     HAL2     0.900000E-01   1.00800           0
      6439 MEMB     48       POPC     H14S     HAL2     0.900000E-01   1.00800           0
      6440 MEMB     48       POPC     C215     CTL2    -0.180000       12.0110           0
      6441 MEMB     48       POPC     H15R     HAL2     0.900000E-01   1.00800           0
      6442 MEMB     48       POPC     H15S     HAL2     0.900000E-01   1.00800           0
      6443 MEMB     48       POPC     C216     CTL2    -0.180000       12.0110           0
      6444 MEMB     48       POPC     H16R     HAL2     0.900000E-01   1.00800           0
      6445 MEMB     48       POPC     H16S     HAL2     0.900000E-01   1.00800           0
      6446 MEMB     48       POPC     C217     CTL2    -0.180000       12.0110           0
      6447 MEMB     48       POPC     H17R     HAL2     0.900000E-01   1.00800           0
      6448 MEMB     48       POPC     H17S     HAL2     0.900000E-01   1.00800           0
      6449 MEMB     48       POPC     C218     CTL3    -0.270000       12.0110           0
      6450 MEMB     48       POPC     H18R     HAL3     0.900000E-01   1.00800           0
      6451 MEMB     48       POPC     H18S     HAL3     0.900000E-01   1.00800           0
      6452 MEMB     48       POPC     H18T     HAL3     0.900000E-01   1.00800           0
      6453 MEMB     48       POPC     C33      CTL2    -0.180000       12.0110           0
      6454 MEMB     48       POPC     H3X      HAL2     0.900000E-01   1.00800           0
      6455 MEMB     48       POPC     H3Y      HAL2     0.900000E-01   1.00800           0
      6456 MEMB     48       POPC     C34      CTL2    -0.180000       12.0110           0
      6457 MEMB     48       POPC     H4X      HAL2     0.900000E-01   1.00800           0
      6458 MEMB     48       POPC     H4Y      HAL2     0.900000E-01   1.00800           0
      6459 MEMB     48       POPC     C35      CTL2    -0.180000       12.0110           0
      6460 MEMB     48       POPC     H5X      HAL2     0.900000E-01   1.00800           0
      6461 MEMB     48       POPC     H5Y      HAL2     0.900000E-01   1.00800           0
      6462 MEMB     48       POPC     C36      CTL2    -0.180000       12.0110           0
      6463 MEMB     48       POPC     H6X      HAL2     0.900000E-01   1.00800           0
      6464 MEMB     48       POPC     H6Y      HAL2     0.900000E-01   1.00800           0
      6465 MEMB     48       POPC     C37      CTL2    -0.180000       12.0110           0
      6466 MEMB     48       POPC     H7X      HAL2     0.900000E-01   1.00800           0
      6467 MEMB     48       POPC     H7Y      HAL2     0.900000E-01   1.00800           0
      6468 MEMB     48       POPC     C38      CTL2    -0.180000       12.0110           0
      6469 MEMB     48       POPC     H8X      HAL2     0.900000E-01   1.00800           0
      6470 MEMB     48       POPC     H8Y      HAL2     0.900000E-01   1.00800           0
      6471 MEMB     48       POPC     C39      CTL2    -0.180000       12.0110           0
      6472 MEMB     48       POPC     H9X      HAL2     0.900000E-01   1.00800           0
      6473 MEMB     48       POPC     H9Y      HAL2     0.900000E-01   1.00800           0
      6474 MEMB     48       POPC     C310     CTL2    -0.180000       12.0110           0
      6475 MEMB     48       POPC     H10X     HAL2     0.900000E-01   1.00800           0
      6476 MEMB     48       POPC     H10Y     HAL2     0.900000E-01   1.00800           0
      6477 MEMB     48       POPC     C311     CTL2    -0.180000       12.0110           0
      6478 MEMB     48       POPC     H11X     HAL2     0.900000E-01   1.00800           0
      6479 MEMB     48       POPC     H11Y     HAL2     0.900000E-01   1.00800           0
      6480 MEMB     48       POPC     C312     CTL2    -0.180000       12.0110           0
      6481 MEMB     48       POPC     H12X     HAL2     0.900000E-01   1.00800           0
      6482 MEMB     48       POPC     H12Y     HAL2     0.900000E-01   1.00800           0
      6483 MEMB     48       POPC     C313     CTL2    -0.180000       12.0110           0
      6484 MEMB     48       POPC     H13X     HAL2     0.900000E-01   1.00800           0
      6485 MEMB     48       POPC     H13Y     HAL2     0.900000E-01   1.00800           0
      6486 MEMB     48       POPC     C314     CTL2    -0.180000       12.0110           0
      6487 MEMB     48       POPC     H14X     HAL2     0.900000E-01   1.00800           0
      6488 MEMB     48       POPC     H14Y     HAL2     0.900000E-01   1.00800           0
      6489 MEMB     48       POPC     C315     CTL2    -0.180000       12.0110           0
      6490 MEMB     48       POPC     H15X     HAL2     0.900000E-01   1.00800           0
      6491 MEMB     48       POPC     H15Y     HAL2     0.900000E-01   1.00800           0
      6492 MEMB     48       POPC     C316     CTL3    -0.270000       12.0110           0
      6493 MEMB     48       POPC     H16X     HAL3     0.900000E-01   1.00800           0
      6494 MEMB     48       POPC     H16Y     HAL3     0.900000E-01   1.00800           0
      6495 MEMB     48       POPC     H16Z     HAL3     0.900000E-01   1.00800           0
      6496 MEMB     49       POPS     N        NH3L    -0.300000       14.0070           0
      6497 MEMB     49       POPS     HN1      HCL      0.330000       1.00800           0
      6498 MEMB     49       POPS     HN2      HCL      0.330000       1.00800           0
      6499 MEMB     49       POPS     HN3      HCL      0.330000       1.00800           0
      6500 MEMB     49       POPS     C12      CTL1     0.210000       12.0110           0
      6501 MEMB     49       POPS     H12A     HBL      0.100000       1.00800           0
      6502 MEMB     49       POPS     C13      CCL      0.340000       12.0110           0
      6503 MEMB     49       POPS     O13A     OCL     -0.670000       15.9994           0
      6504 MEMB     49       POPS     O13B     OCL     -0.670000       15.9994           0
      6505 MEMB     49       POPS     C11      CTL2    -0.800000E-01   12.0110           0
      6506 MEMB     49       POPS     H11A     HAL2     0.900000E-01   1.00800           0
      6507 MEMB     49       POPS     H11B     HAL2     0.900000E-01   1.00800           0
      6508 MEMB     49       POPS     P        PL       1.500000       30.9740           0
      6509 MEMB     49       POPS     O13      O2L     -0.780000       15.9994           0
      6510 MEMB     49       POPS     O14      O2L     -0.780000       15.9994           0
      6511 MEMB     49       POPS     O12      OSLP    -0.570000       15.9994           0
      6512 MEMB     49       POPS     O11      OSLP    -0.570000       15.9994           0
      6513 MEMB     49       POPS     C1       CTL2    -0.800000E-01   12.0110           0
      6514 MEMB     49       POPS     HA       HAL2     0.900000E-01   1.00800           0
      6515 MEMB     49       POPS     HB       HAL2     0.900000E-01   1.00800           0
      6516 MEMB     49       POPS     C2       CTL1     0.170000       12.0110           0
      6517 MEMB     49       POPS     HS       HAL1     0.900000E-01   1.00800           0
      6518 MEMB     49       POPS     O21      OSL     -0.490000       15.9994           0
      6519 MEMB     49       POPS     C21      CL       0.900000       12.0110           0
      6520 MEMB     49       POPS     O22      OBL     -0.630000       15.9994           0
      6521 MEMB     49       POPS     C22      CTL2    -0.220000       12.0110           0
      6522 MEMB     49       POPS     H2R      HAL2     0.900000E-01   1.00800           0
      6523 MEMB     49       POPS     H2S      HAL2     0.900000E-01   1.00800           0
      6524 MEMB     49       POPS     C3       CTL2     0.800000E-01   12.0110           0
      6525 MEMB     49       POPS     HX       HAL2     0.900000E-01   1.00800           0
      6526 MEMB     49       POPS     HY       HAL2     0.900000E-01   1.00800           0
      6527 MEMB     49       POPS     O31      OSL     -0.490000       15.9994           0
      6528 MEMB     49       POPS     C31      CL       0.900000       12.0110           0
      6529 MEMB     49       POPS     O32      OBL     -0.630000       15.9994           0
      6530 MEMB     49       POPS     C32      CTL2    -0.220000       12.0110           0
      6531 MEMB     49       POPS     H2X      HAL2     0.900000E-01   1.00800           0
      6532 MEMB     49       POPS     H2Y      HAL2     0.900000E-01   1.00800           0
      6533 MEMB     49       POPS     C23      CTL2    -0.180000       12.0110           0
      6534 MEMB     49       POPS     H3R      HAL2     0.900000E-01   1.00800           0
      6535 MEMB     49       POPS     H3S      HAL2     0.900000E-01   1.00800           0
      6536 MEMB     49       POPS     C24      CTL2    -0.180000       12.0110           0
      6537 MEMB     49       POPS     H4R      HAL2     0.900000E-01   1.00800           0
      6538 MEMB     49       POPS     H4S      HAL2     0.900000E-01   1.00800           0
      6539 MEMB     49       POPS     C25      CTL2    -0.180000       12.0110           0
      6540 MEMB     49       POPS     H5R      HAL2     0.900000E-01   1.00800           0
      6541 MEMB     49       POPS     H5S      HAL2     0.900000E-01   1.00800           0
      6542 MEMB     49       POPS     C26      CTL2    -0.180000       12.0110           0
      6543 MEMB     49       POPS     H6R      HAL2     0.900000E-01   1.00800           0
      6544 MEMB     49       POPS     H6S      HAL2     0.900000E-01   1.00800           0
      6545 MEMB     49       POPS     C27      CTL2    -0.180000       12.0110           0
      6546 MEMB     49       POPS     H7R      HAL2     0.900000E-01   1.00800           0
      6547 MEMB     49       POPS     H7S      HAL2     0.900000E-01   1.00800           0
      6548 MEMB     49       POPS     C28      CTL2    -0.180000       12.0110           0
      6549 MEMB     49       POPS     H8R      HAL2     0.900000E-01   1.00800           0
      6550 MEMB     49       POPS     H8S      HAL2     0.900000E-01   1.00800           0
      6551 MEMB     49       POPS     C29      CEL1    -0.150000       12.0110           0
      6552 MEMB     49       POPS     H91      HEL1     0.150000       1.00800           0
      6553 MEMB     49       POPS     C210     CEL1    -0.150000       12.0110           0
      6554 MEMB     49       POPS     H101     HEL1     0.150000       1.00800           0
      6555 MEMB     49       POPS     C211     CTL2    -0.180000       12.0110           0
      6556 MEMB     49       POPS     H11R     HAL2     0.900000E-01   1.00800           0
      6557 MEMB     49       POPS     H11S     HAL2     0.900000E-01   1.00800           0
      6558 MEMB     49       POPS     C212     CTL2    -0.180000       12.0110           0
      6559 MEMB     49       POPS     H12R     HAL2     0.900000E-01   1.00800           0
      6560 MEMB     49       POPS     H12S     HAL2     0.900000E-01   1.00800           0
      6561 MEMB     49       POPS     C213     CTL2    -0.180000       12.0110           0
      6562 MEMB     49       POPS     H13R     HAL2     0.900000E-01   1.00800           0
      6563 MEMB     49       POPS     H13S     HAL2     0.900000E-01   1.00800           0
      6564 MEMB     49       POPS     C214     CTL2    -0.180000       12.0110           0
      6565 MEMB     49       POPS     H14R     HAL2     0.900000E-01   1.00800           0
      6566 MEMB     49       POPS     H14S     HAL2     0.900000E-01   1.00800           0
      6567 MEMB     49       POPS     C215     CTL2    -0.180000       12.0110           0
      6568 MEMB     49       POPS     H15R     HAL2     0.900000E-01   1.00800           0
      6569 MEMB     49       POPS     H15S     HAL2     0.900000E-01   1.00800           0
      6570 MEMB     49       POPS     C216     CTL2    -0.180000       12.0110           0
      6571 MEMB     49       POPS     H16R     HAL2     0.900000E-01   1.00800           0
      6572 MEMB     49       POPS     H16S     HAL2     0.900000E-01   1.00800           0
      6573 MEMB     49       POPS     C217     CTL2    -0.180000       12.0110           0
      6574 MEMB     49       POPS     H17R     HAL2     0.900000E-01   1.00800           0
      6575 MEMB     49       POPS     H17S     HAL2     0.900000E-01   1.00800           0
      6576 MEMB     49       POPS     C218     CTL3    -0.270000       12.0110           0
      6577 MEMB     49       POPS     H18R     HAL3     0.900000E-01   1.00800           0
      6578 MEMB     49       POPS     H18S     HAL3     0.900000E-01   1.00800           0
      6579 MEMB     49       POPS     H18T     HAL3     0.900000E-01   1.00800           0
      6580 MEMB     49       POPS     C33      CTL2    -0.180000       12.0110           0
      6581 MEMB     49       POPS     H3X      HAL2     0.900000E-01   1.00800           0
      6582 MEMB     49       POPS     H3Y      HAL2     0.900000E-01   1.00800           0
      6583 MEMB     49       POPS     C34      CTL2    -0.180000       12.0110           0
      6584 MEMB     49       POPS     H4X      HAL2     0.900000E-01   1.00800           0
      6585 MEMB     49       POPS     H4Y      HAL2     0.900000E-01   1.00800           0
      6586 MEMB     49       POPS     C35      CTL2    -0.180000       12.0110           0
      6587 MEMB     49       POPS     H5X      HAL2     0.900000E-01   1.00800           0
      6588 MEMB     49       POPS     H5Y      HAL2     0.900000E-01   1.00800           0
      6589 MEMB     49       POPS     C36      CTL2    -0.180000       12.0110           0
      6590 MEMB     49       POPS     H6X      HAL2     0.900000E-01   1.00800           0
      6591 MEMB     49       POPS     H6Y      HAL2     0.900000E-01   1.00800           0
      6592 MEMB     49       POPS     C37      CTL2    -0.180000       12.0110           0
      6593 MEMB     49       POPS     H7X      HAL2     0.900000E-01   1.00800           0
      6594 MEMB     49       POPS     H7Y      HAL2     0.900000E-01   1.00800           0
      6595 MEMB     49       POPS     C38      CTL2    -0.180000       12.0110           0
      6596 MEMB     49       POPS     H8X      HAL2     0.900000E-01   1.00800           0
      6597 MEMB     49       POPS     H8Y      HAL2     0.900000E-01   1.00800           0
      6598 MEMB     49       POPS     C39      CTL2    -0.180000       12.0110           0
      6599 MEMB     49       POPS     H9X      HAL2     0.900000E-01   1.00800           0
      6600 MEMB     49       POPS     H9Y      HAL2     0.900000E-01   1.00800           0
      6601 MEMB     49       POPS     C310     CTL2    -0.180000       12.0110           0
      6602 MEMB     49       POPS     H10X     HAL2     0.900000E-01   1.00800           0
      6603 MEMB     49       POPS     H10Y     HAL2     0.900000E-01   1.00800           0
      6604 MEMB     49       POPS     C311     CTL2    -0.180000       12.0110           0
      6605 MEMB     49       POPS     H11X     HAL2     0.900000E-01   1.00800           0
      6606 MEMB     49       POPS     H11Y     HAL2     0.900000E-01   1.00800           0
      6607 MEMB     49       POPS     C312     CTL2    -0.180000       12.0110           0
      6608 MEMB     49       POPS     H12X     HAL2     0.900000E-01   1.00800           0
      6609 MEMB     49       POPS     H12Y     HAL2     0.900000E-01   1.00800           0
      6610 MEMB     49       POPS     C313     CTL2    -0.180000       12.0110           0
      6611 MEMB     49       POPS     H13X     HAL2     0.900000E-01   1.00800           0
      6612 MEMB     49       POPS     H13Y     HAL2     0.900000E-01   1.00800           0
      6613 MEMB     49       POPS     C314     CTL2    -0.180000       12.0110           0
      6614 MEMB     49       POPS     H14X     HAL2     0.900000E-01   1.00800           0
      6615 MEMB     49       POPS     H14Y     HAL2     0.900000E-01   1.00800           0
      6616 MEMB     49       POPS     C315     CTL2    -0.180000       12.0110           0
      6617 MEMB     49       POPS     H15X     HAL2     0.900000E-01   1.00800           0
      6618 MEMB     49       POPS     H15Y     HAL2     0.900000E-01   1.00800           0
      6619 MEMB     49       POPS     C316     CTL3    -0.270000       12.0110           0
      6620 MEMB     49       POPS     H16X     HAL3     0.900000E-01   1.00800           0
      6621 MEMB     49       POPS     H16Y     HAL3     0.900000E-01   1.00800           0
      6622 MEMB     49       POPS     H16Z     HAL3     0.900000E-01   1.00800           0
      6623 MEMB     50       POPS     N        NH3L    -0.300000       14.0070           0
      6624 MEMB     50       POPS     HN1      HCL      0.330000       1.00800           0
      6625 MEMB     50       POPS     HN2      HCL      0.330000       1.00800           0
      6626 MEMB     50       POPS     HN3      HCL      0.330000       1.00800           0
      6627 MEMB     50       POPS     C12      CTL1     0.210000       12.0110           0
      6628 MEMB     50       POPS     H12A     HBL      0.100000       1.00800           0
      6629 MEMB     50       POPS     C13      CCL      0.340000       12.0110           0
      6630 MEMB     50       POPS     O13A     OCL     -0.670000       15.9994           0
      6631 MEMB     50       POPS     O13B     OCL     -0.670000       15.9994           0
      6632 MEMB     50       POPS     C11      CTL2    -0.800000E-01   12.0110           0
      6633 MEMB     50       POPS     H11A     HAL2     0.900000E-01   1.00800           0
      6634 MEMB     50       POPS     H11B     HAL2     0.900000E-01   1.00800           0
      6635 MEMB     50       POPS     P        PL       1.500000       30.9740           0
      6636 MEMB     50       POPS     O13      O2L     -0.780000       15.9994           0
      6637 MEMB     50       POPS     O14      O2L     -0.780000       15.9994           0
      6638 MEMB     50       POPS     O12      OSLP    -0.570000       15.9994           0
      6639 MEMB     50       POPS     O11      OSLP    -0.570000       15.9994           0
      6640 MEMB     50       POPS     C1       CTL2    -0.800000E-01   12.0110           0
      6641 MEMB     50       POPS     HA       HAL2     0.900000E-01   1.00800           0
      6642 MEMB     50       POPS     HB       HAL2     0.900000E-01   1.00800           0
      6643 MEMB     50       POPS     C2       CTL1     0.170000       12.0110           0
      6644 MEMB     50       POPS     HS       HAL1     0.900000E-01   1.00800           0
      6645 MEMB     50       POPS     O21      OSL     -0.490000       15.9994           0
      6646 MEMB     50       POPS     C21      CL       0.900000       12.0110           0
      6647 MEMB     50       POPS     O22      OBL     -0.630000       15.9994           0
      6648 MEMB     50       POPS     C22      CTL2    -0.220000       12.0110           0
      6649 MEMB     50       POPS     H2R      HAL2     0.900000E-01   1.00800           0
      6650 MEMB     50       POPS     H2S      HAL2     0.900000E-01   1.00800           0
      6651 MEMB     50       POPS     C3       CTL2     0.800000E-01   12.0110           0
      6652 MEMB     50       POPS     HX       HAL2     0.900000E-01   1.00800           0
      6653 MEMB     50       POPS     HY       HAL2     0.900000E-01   1.00800           0
      6654 MEMB     50       POPS     O31      OSL     -0.490000       15.9994           0
      6655 MEMB     50       POPS     C31      CL       0.900000       12.0110           0
      6656 MEMB     50       POPS     O32      OBL     -0.630000       15.9994           0
      6657 MEMB     50       POPS     C32      CTL2    -0.220000       12.0110           0
      6658 MEMB     50       POPS     H2X      HAL2     0.900000E-01   1.00800           0
      6659 MEMB     50       POPS     H2Y      HAL2     0.900000E-01   1.00800           0
      6660 MEMB     50       POPS     C23      CTL2    -0.180000       12.0110           0
      6661 MEMB     50       POPS     H3R      HAL2     0.900000E-01   1.00800           0
      6662 MEMB     50       POPS     H3S      HAL2     0.900000E-01   1.00800           0
      6663 MEMB     50       POPS     C24      CTL2    -0.180000       12.0110           0
      6664 MEMB     50       POPS     H4R      HAL2     0.900000E-01   1.00800           0
      6665 MEMB     50       POPS     H4S      HAL2     0.900000E-01   1.00800           0
      6666 MEMB     50       POPS     C25      CTL2    -0.180000       12.0110           0
      6667 MEMB     50       POPS     H5R      HAL2     0.900000E-01   1.00800           0
      6668 MEMB     50       POPS     H5S      HAL2     0.900000E-01   1.00800           0
      6669 MEMB     50       POPS     C26      CTL2    -0.180000       12.0110           0
      6670 MEMB     50       POPS     H6R      HAL2     0.900000E-01   1.00800           0
      6671 MEMB     50       POPS     H6S      HAL2     0.900000E-01   1.00800           0
      6672 MEMB     50       POPS     C27      CTL2    -0.180000       12.0110           0
      6673 MEMB     50       POPS     H7R      HAL2     0.900000E-01   1.00800           0
      6674 MEMB     50       POPS     H7S      HAL2     0.900000E-01   1.00800           0
      6675 MEMB     50       POPS     C28      CTL2    -0.180000       12.0110           0
      6676 MEMB     50       POPS     H8R      HAL2     0.900000E-01   1.00800           0
      6677 MEMB     50       POPS     H8S      HAL2     0.900000E-01   1.00800           0
      6678 MEMB     50       POPS     C29      CEL1    -0.150000       12.0110           0
      6679 MEMB     50       POPS     H91      HEL1     0.150000       1.00800           0
      6680 MEMB     50       POPS     C210     CEL1    -0.150000       12.0110           0
      6681 MEMB     50       POPS     H101     HEL1     0.150000       1.00800           0
      6682 MEMB     50       POPS     C211     CTL2    -0.180000       12.0110           0
      6683 MEMB     50       POPS     H11R     HAL2     0.900000E-01   1.00800           0
      6684 MEMB     50       POPS     H11S     HAL2     0.900000E-01   1.00800           0
      6685 MEMB     50       POPS     C212     CTL2    -0.180000       12.0110           0
      6686 MEMB     50       POPS     H12R     HAL2     0.900000E-01   1.00800           0
      6687 MEMB     50       POPS     H12S     HAL2     0.900000E-01   1.00800           0
      6688 MEMB     50       POPS     C213     CTL2    -0.180000       12.0110           0
      6689 MEMB     50       POPS     H13R     HAL2     0.900000E-01   1.00800           0
      6690 MEMB     50       POPS     H13S     HAL2     0.900000E-01   1.00800           0
      6691 MEMB     50       POPS     C214     CTL2    -0.180000       12.0110           0
      6692 MEMB     50       POPS     H14R     HAL2     0.900000E-01   1.00800           0
      6693 MEMB     50       POPS     H14S     HAL2     0.900000E-01   1.00800           0
      6694 MEMB     50       POPS     C215     CTL2    -0.180000       12.0110           0
      6695 MEMB     50       POPS     H15R     HAL2     0.900000E-01   1.00800           0
      6696 MEMB     50       POPS     H15S     HAL2     0.900000E-01   1.00800           0
      6697 MEMB     50       POPS     C216     CTL2    -0.180000       12.0110           0
      6698 MEMB     50       POPS     H16R     HAL2     0.900000E-01   1.00800           0
      6699 MEMB     50       POPS     H16S     HAL2     0.900000E-01   1.00800           0
      6700 MEMB     50       POPS     C217     CTL2    -0.180000       12.0110           0
      6701 MEMB     50       POPS     H17R     HAL2     0.900000E-01   1.00800           0
      6702 MEMB     50       POPS     H17S     HAL2     0.900000E-01   1.00800           0
      6703 MEMB     50       POPS     C218     CTL3    -0.270000       12.0110           0
      6704 MEMB     50       POPS     H18R     HAL3     0.900000E-01   1.00800           0
      6705 MEMB     50       POPS     H18S     HAL3     0.900000E-01   1.00800           0
      6706 MEMB     50       POPS     H18T     HAL3     0.900000E-01   1.00800           0
      6707 MEMB     50       POPS     C33      CTL2    -0.180000       12.0110           0
      6708 MEMB     50       POPS     H3X      HAL2     0.900000E-01   1.00800           0
      6709 MEMB     50       POPS     H3Y      HAL2     0.900000E-01   1.00800           0
      6710 MEMB     50       POPS     C34      CTL2    -0.180000       12.0110           0
      6711 MEMB     50       POPS     H4X      HAL2     0.900000E-01   1.00800           0
      6712 MEMB     50       POPS     H4Y      HAL2     0.900000E-01   1.00800           0
      6713 MEMB     50       POPS     C35      CTL2    -0.180000       12.0110           0
      6714 MEMB     50       POPS     H5X      HAL2     0.900000E-01   1.00800           0
      6715 MEMB     50       POPS     H5Y      HAL2     0.900000E-01   1.00800           0
      6716 MEMB     50       POPS     C36      CTL2    -0.180000       12.0110           0
      6717 MEMB     50       POPS     H6X      HAL2     0.900000E-01   1.00800           0
      6718 MEMB     50       POPS     H6Y      HAL2     0.900000E-01   1.00800           0
      6719 MEMB     50       POPS     C37      CTL2    -0.180000       12.0110           0
      6720 MEMB     50       POPS     H7X      HAL2     0.900000E-01   1.00800           0
      6721 MEMB     50       POPS     H7Y      HAL2     0.900000E-01   1.00800           0
      6722 MEMB     50       POPS     C38      CTL2    -0.180000       12.0110           0
      6723 MEMB     50       POPS     H8X      HAL2     0.900000E-01   1.00800           0
      6724 MEMB     50       POPS     H8Y      HAL2     0.900000E-01   1.00800           0
      6725 MEMB     50       POPS     C39      CTL2    -0.180000       12.0110           0
      6726 MEMB     50       POPS     H9X      HAL2     0.900000E-01   1.00800           0
      6727 MEMB     50       POPS     H9Y      HAL2     0.900000E-01   1.00800           0
      6728 MEMB     50       POPS     C310     CTL2    -0.180000       12.0110           0
      6729 MEMB     50       POPS     H10X     HAL2     0.900000E-01   1.00800           0
      6730 MEMB     50       POPS     H10Y     HAL2     0.900000E-01   1.00800           0
      6731 MEMB     50       POPS     C311     CTL2    -0.180000       12.0110           0
      6732 MEMB     50       POPS     H11X     HAL2     0.900000E-01   1.00800           0
      6733 MEMB     50       POPS     H11Y     HAL2     0.900000E-01   1.00800           0
      6734 MEMB     50       POPS     C312     CTL2    -0.180000       12.0110           0
      6735 MEMB     50       POPS     H12X     HAL2     0.900000E-01   1.00800           0
      6736 MEMB     50       POPS     H12Y     HAL2     0.900000E-01   1.00800           0
      6737 MEMB     50       POPS     C313     CTL2    -0.180000       12.0110           0
      6738 MEMB     50       POPS     H13X     HAL2     0.900000E-01   1.00800           0
      6739 MEMB     50       POPS     H13Y     HAL2     0.900000E-01   1.00800           0
      6740 MEMB     50       POPS     C314     CTL2    -0.180000       12.0110           0
      6741 MEMB     50       POPS     H14X     HAL2     0.900000E-01   1.00800           0
      6742 MEMB     50       POPS     H14Y     HAL2     0.900000E-01   1.00800           0
      6743 MEMB     50       POPS     C315     CTL2    -0.180000       12.0110           0
      6744 MEMB     50       POPS     H15X     HAL2     0.900000E-01   1.00800           0
      6745 MEMB     50       POPS     H15Y     HAL2     0.900000E-01   1.00800           0
      6746 MEMB     50       POPS     C316     CTL3    -0.270000       12.0110           0
      6747 MEMB     50       POPS     H16X     HAL3     0.900000E-01   1.00800           0
      6748 MEMB     50       POPS     H16Y     HAL3     0.900000E-01   1.00800           0
      6749 MEMB     50       POPS     H16Z     HAL3     0.900000E-01   1.00800           0
      6750 MEMB     51       POPS     N        NH3L    -0.300000       14.0070           0
      6751 MEMB     51       POPS     HN1      HCL      0.330000       1.00800           0
      6752 MEMB     51       POPS     HN2      HCL      0.330000       1.00800           0
      6753 MEMB     51       POPS     HN3      HCL      0.330000       1.00800           0
      6754 MEMB     51       POPS     C12      CTL1     0.210000       12.0110           0
      6755 MEMB     51       POPS     H12A     HBL      0.100000       1.00800           0
      6756 MEMB     51       POPS     C13      CCL      0.340000       12.0110           0
      6757 MEMB     51       POPS     O13A     OCL     -0.670000       15.9994           0
      6758 MEMB     51       POPS     O13B     OCL     -0.670000       15.9994           0
      6759 MEMB     51       POPS     C11      CTL2    -0.800000E-01   12.0110           0
      6760 MEMB     51       POPS     H11A     HAL2     0.900000E-01   1.00800           0
      6761 MEMB     51       POPS     H11B     HAL2     0.900000E-01   1.00800           0
      6762 MEMB     51       POPS     P        PL       1.500000       30.9740           0
      6763 MEMB     51       POPS     O13      O2L     -0.780000       15.9994           0
      6764 MEMB     51       POPS     O14      O2L     -0.780000       15.9994           0
      6765 MEMB     51       POPS     O12      OSLP    -0.570000       15.9994           0
      6766 MEMB     51       POPS     O11      OSLP    -0.570000       15.9994           0
      6767 MEMB     51       POPS     C1       CTL2    -0.800000E-01   12.0110           0
      6768 MEMB     51       POPS     HA       HAL2     0.900000E-01   1.00800           0
      6769 MEMB     51       POPS     HB       HAL2     0.900000E-01   1.00800           0
      6770 MEMB     51       POPS     C2       CTL1     0.170000       12.0110           0
      6771 MEMB     51       POPS     HS       HAL1     0.900000E-01   1.00800           0
      6772 MEMB     51       POPS     O21      OSL     -0.490000       15.9994           0
      6773 MEMB     51       POPS     C21      CL       0.900000       12.0110           0
      6774 MEMB     51       POPS     O22      OBL     -0.630000       15.9994           0
      6775 MEMB     51       POPS     C22      CTL2    -0.220000       12.0110           0
      6776 MEMB     51       POPS     H2R      HAL2     0.900000E-01   1.00800           0
      6777 MEMB     51       POPS     H2S      HAL2     0.900000E-01   1.00800           0
      6778 MEMB     51       POPS     C3       CTL2     0.800000E-01   12.0110           0
      6779 MEMB     51       POPS     HX       HAL2     0.900000E-01   1.00800           0
      6780 MEMB     51       POPS     HY       HAL2     0.900000E-01   1.00800           0
      6781 MEMB     51       POPS     O31      OSL     -0.490000       15.9994           0
      6782 MEMB     51       POPS     C31      CL       0.900000       12.0110           0
      6783 MEMB     51       POPS     O32      OBL     -0.630000       15.9994           0
      6784 MEMB     51       POPS     C32      CTL2    -0.220000       12.0110           0
      6785 MEMB     51       POPS     H2X      HAL2     0.900000E-01   1.00800           0
      6786 MEMB     51       POPS     H2Y      HAL2     0.900000E-01   1.00800           0
      6787 MEMB     51       POPS     C23      CTL2    -0.180000       12.0110           0
      6788 MEMB     51       POPS     H3R      HAL2     0.900000E-01   1.00800           0
      6789 MEMB     51       POPS     H3S      HAL2     0.900000E-01   1.00800           0
      6790 MEMB     51       POPS     C24      CTL2    -0.180000       12.0110           0
      6791 MEMB     51       POPS     H4R      HAL2     0.900000E-01   1.00800           0
      6792 MEMB     51       POPS     H4S      HAL2     0.900000E-01   1.00800           0
      6793 MEMB     51       POPS     C25      CTL2    -0.180000       12.0110           0
      6794 MEMB     51       POPS     H5R      HAL2     0.900000E-01   1.00800           0
      6795 MEMB     51       POPS     H5S      HAL2     0.900000E-01   1.00800           0
      6796 MEMB     51       POPS     C26      CTL2    -0.180000       12.0110           0
      6797 MEMB     51       POPS     H6R      HAL2     0.900000E-01   1.00800           0
      6798 MEMB     51       POPS     H6S      HAL2     0.900000E-01   1.00800           0
      6799 MEMB     51       POPS     C27      CTL2    -0.180000       12.0110           0
      6800 MEMB     51       POPS     H7R      HAL2     0.900000E-01   1.00800           0
      6801 MEMB     51       POPS     H7S      HAL2     0.900000E-01   1.00800           0
      6802 MEMB     51       POPS     C28      CTL2    -0.180000       12.0110           0
      6803 MEMB     51       POPS     H8R      HAL2     0.900000E-01   1.00800           0
      6804 MEMB     51       POPS     H8S      HAL2     0.900000E-01   1.00800           0
      6805 MEMB     51       POPS     C29      CEL1    -0.150000       12.0110           0
      6806 MEMB     51       POPS     H91      HEL1     0.150000       1.00800           0
      6807 MEMB     51       POPS     C210     CEL1    -0.150000       12.0110           0
      6808 MEMB     51       POPS     H101     HEL1     0.150000       1.00800           0
      6809 MEMB     51       POPS     C211     CTL2    -0.180000       12.0110           0
      6810 MEMB     51       POPS     H11R     HAL2     0.900000E-01   1.00800           0
      6811 MEMB     51       POPS     H11S     HAL2     0.900000E-01   1.00800           0
      6812 MEMB     51       POPS     C212     CTL2    -0.180000       12.0110           0
      6813 MEMB     51       POPS     H12R     HAL2     0.900000E-01   1.00800           0
      6814 MEMB     51       POPS     H12S     HAL2     0.900000E-01   1.00800           0
      6815 MEMB     51       POPS     C213     CTL2    -0.180000       12.0110           0
      6816 MEMB     51       POPS     H13R     HAL2     0.900000E-01   1.00800           0
      6817 MEMB     51       POPS     H13S     HAL2     0.900000E-01   1.00800           0
      6818 MEMB     51       POPS     C214     CTL2    -0.180000       12.0110           0
      6819 MEMB     51       POPS     H14R     HAL2     0.900000E-01   1.00800           0
      6820 MEMB     51       POPS     H14S     HAL2     0.900000E-01   1.00800           0
      6821 MEMB     51       POPS     C215     CTL2    -0.180000       12.0110           0
      6822 MEMB     51       POPS     H15R     HAL2     0.900000E-01   1.00800           0
      6823 MEMB     51       POPS     H15S     HAL2     0.900000E-01   1.00800           0
      6824 MEMB     51       POPS     C216     CTL2    -0.180000       12.0110           0
      6825 MEMB     51       POPS     H16R     HAL2     0.900000E-01   1.00800           0
      6826 MEMB     51       POPS     H16S     HAL2     0.900000E-01   1.00800           0
      6827 MEMB     51       POPS     C217     CTL2    -0.180000       12.0110           0
      6828 MEMB     51       POPS     H17R     HAL2     0.900000E-01   1.00800           0
      6829 MEMB     51       POPS     H17S     HAL2     0.900000E-01   1.00800           0
      6830 MEMB     51       POPS     C218     CTL3    -0.270000       12.0110           0
      6831 MEMB     51       POPS     H18R     HAL3     0.900000E-01   1.00800           0
      6832 MEMB     51       POPS     H18S     HAL3     0.900000E-01   1.00800           0
      6833 MEMB     51       POPS     H18T     HAL3     0.900000E-01   1.00800           0
      6834 MEMB     51       POPS     C33      CTL2    -0.180000       12.0110           0
      6835 MEMB     51       POPS     H3X      HAL2     0.900000E-01   1.00800           0
      6836 MEMB     51       POPS     H3Y      HAL2     0.900000E-01   1.00800           0
      6837 MEMB     51       POPS     C34      CTL2    -0.180000       12.0110           0
      6838 MEMB     51       POPS     H4X      HAL2     0.900000E-01   1.00800           0
      6839 MEMB     51       POPS     H4Y      HAL2     0.900000E-01   1.00800           0
      6840 MEMB     51       POPS     C35      CTL2    -0.180000       12.0110           0
      6841 MEMB     51       POPS     H5X      HAL2     0.900000E-01   1.00800           0
      6842 MEMB     51       POPS     H5Y      HAL2     0.900000E-01   1.00800           0
      6843 MEMB     51       POPS     C36      CTL2    -0.180000       12.0110           0
      6844 MEMB     51       POPS     H6X      HAL2     0.900000E-01   1.00800           0
      6845 MEMB     51       POPS     H6Y      HAL2     0.900000E-01   1.00800           0
      6846 MEMB     51       POPS     C37      CTL2    -0.180000       12.0110           0
      6847 MEMB     51       POPS     H7X      HAL2     0.900000E-01   1.00800           0
      6848 MEMB     51       POPS     H7Y      HAL2     0.900000E-01   1.00800           0
      6849 MEMB     51       POPS     C38      CTL2    -0.180000       12.0110           0
      6850 MEMB     51       POPS     H8X      HAL2     0.900000E-01   1.00800           0
      6851 MEMB     51       POPS     H8Y      HAL2     0.900000E-01   1.00800           0
      6852 MEMB     51       POPS     C39      CTL2    -0.180000       12.0110           0
      6853 MEMB     51       POPS     H9X      HAL2     0.900000E-01   1.00800           0
      6854 MEMB     51       POPS     H9Y      HAL2     0.900000E-01   1.00800           0
      6855 MEMB     51       POPS     C310     CTL2    -0.180000       12.0110           0
      6856 MEMB     51       POPS     H10X     HAL2     0.900000E-01   1.00800           0
      6857 MEMB     51       POPS     H10Y     HAL2     0.900000E-01   1.00800           0
      6858 MEMB     51       POPS     C311     CTL2    -0.180000       12.0110           0
      6859 MEMB     51       POPS     H11X     HAL2     0.900000E-01   1.00800           0
      6860 MEMB     51       POPS     H11Y     HAL2     0.900000E-01   1.00800           0
      6861 MEMB     51       POPS     C312     CTL2    -0.180000       12.0110           0
      6862 MEMB     51       POPS     H12X     HAL2     0.900000E-01   1.00800           0
      6863 MEMB     51       POPS     H12Y     HAL2     0.900000E-01   1.00800           0
      6864 MEMB     51       POPS     C313     CTL2    -0.180000       12.0110           0
      6865 MEMB     51       POPS     H13X     HAL2     0.900000E-01   1.00800           0
      6866 MEMB     51       POPS     H13Y     HAL2     0.900000E-01   1.00800           0
      6867 MEMB     51       POPS     C314     CTL2    -0.180000       12.0110           0
      6868 MEMB     51       POPS     H14X     HAL2     0.900000E-01   1.00800           0
      6869 MEMB     51       POPS     H14Y     HAL2     0.900000E-01   1.00800           0
      6870 MEMB     51       POPS     C315     CTL2    -0.180000       12.0110           0
      6871 MEMB     51       POPS     H15X     HAL2     0.900000E-01   1.00800           0
      6872 MEMB     51       POPS     H15Y     HAL2     0.900000E-01   1.00800           0
      6873 MEMB     51       POPS     C316     CTL3    -0.270000       12.0110           0
      6874 MEMB     51       POPS     H16X     HAL3     0.900000E-01   1.00800           0
      6875 MEMB     51       POPS     H16Y     HAL3     0.900000E-01   1.00800           0
      6876 MEMB     51       POPS     H16Z     HAL3     0.900000E-01   1.00800           0
      6877 MEMB     52       POPC     N        NTL     -0.600000       14.0070           0
      6878 MEMB     52       POPC     C12      CTL2    -0.100000       12.0110           0
      6879 MEMB     52       POPC     H12A     HL       0.250000       1.00800           0
      6880 MEMB     52       POPC     H12B     HL       0.250000       1.00800           0
      6881 MEMB     52       POPC     C13      CTL5    -0.350000       12.0110           0
      6882 MEMB     52       POPC     H13A     HL       0.250000       1.00800           0
      6883 MEMB     52       POPC     H13B     HL       0.250000       1.00800           0
      6884 MEMB     52       POPC     H13C     HL       0.250000       1.00800           0
      6885 MEMB     52       POPC     C14      CTL5    -0.350000       12.0110           0
      6886 MEMB     52       POPC     H14A     HL       0.250000       1.00800           0
      6887 MEMB     52       POPC     H14B     HL       0.250000       1.00800           0
      6888 MEMB     52       POPC     H14C     HL       0.250000       1.00800           0
      6889 MEMB     52       POPC     C15      CTL5    -0.350000       12.0110           0
      6890 MEMB     52       POPC     H15A     HL       0.250000       1.00800           0
      6891 MEMB     52       POPC     H15B     HL       0.250000       1.00800           0
      6892 MEMB     52       POPC     H15C     HL       0.250000       1.00800           0
      6893 MEMB     52       POPC     C11      CTL2    -0.800000E-01   12.0110           0
      6894 MEMB     52       POPC     H11A     HAL2     0.900000E-01   1.00800           0
      6895 MEMB     52       POPC     H11B     HAL2     0.900000E-01   1.00800           0
      6896 MEMB     52       POPC     P        PL       1.500000       30.9740           0
      6897 MEMB     52       POPC     O13      O2L     -0.780000       15.9994           0
      6898 MEMB     52       POPC     O14      O2L     -0.780000       15.9994           0
      6899 MEMB     52       POPC     O12      OSLP    -0.570000       15.9994           0
      6900 MEMB     52       POPC     O11      OSLP    -0.570000       15.9994           0
      6901 MEMB     52       POPC     C1       CTL2    -0.800000E-01   12.0110           0
      6902 MEMB     52       POPC     HA       HAL2     0.900000E-01   1.00800           0
      6903 MEMB     52       POPC     HB       HAL2     0.900000E-01   1.00800           0
      6904 MEMB     52       POPC     C2       CTL1     0.170000       12.0110           0
      6905 MEMB     52       POPC     HS       HAL1     0.900000E-01   1.00800           0
      6906 MEMB     52       POPC     O21      OSL     -0.490000       15.9994           0
      6907 MEMB     52       POPC     C21      CL       0.900000       12.0110           0
      6908 MEMB     52       POPC     O22      OBL     -0.630000       15.9994           0
      6909 MEMB     52       POPC     C22      CTL2    -0.220000       12.0110           0
      6910 MEMB     52       POPC     H2R      HAL2     0.900000E-01   1.00800           0
      6911 MEMB     52       POPC     H2S      HAL2     0.900000E-01   1.00800           0
      6912 MEMB     52       POPC     C3       CTL2     0.800000E-01   12.0110           0
      6913 MEMB     52       POPC     HX       HAL2     0.900000E-01   1.00800           0
      6914 MEMB     52       POPC     HY       HAL2     0.900000E-01   1.00800           0
      6915 MEMB     52       POPC     O31      OSL     -0.490000       15.9994           0
      6916 MEMB     52       POPC     C31      CL       0.900000       12.0110           0
      6917 MEMB     52       POPC     O32      OBL     -0.630000       15.9994           0
      6918 MEMB     52       POPC     C32      CTL2    -0.220000       12.0110           0
      6919 MEMB     52       POPC     H2X      HAL2     0.900000E-01   1.00800           0
      6920 MEMB     52       POPC     H2Y      HAL2     0.900000E-01   1.00800           0
      6921 MEMB     52       POPC     C23      CTL2    -0.180000       12.0110           0
      6922 MEMB     52       POPC     H3R      HAL2     0.900000E-01   1.00800           0
      6923 MEMB     52       POPC     H3S      HAL2     0.900000E-01   1.00800           0
      6924 MEMB     52       POPC     C24      CTL2    -0.180000       12.0110           0
      6925 MEMB     52       POPC     H4R      HAL2     0.900000E-01   1.00800           0
      6926 MEMB     52       POPC     H4S      HAL2     0.900000E-01   1.00800           0
      6927 MEMB     52       POPC     C25      CTL2    -0.180000       12.0110           0
      6928 MEMB     52       POPC     H5R      HAL2     0.900000E-01   1.00800           0
      6929 MEMB     52       POPC     H5S      HAL2     0.900000E-01   1.00800           0
      6930 MEMB     52       POPC     C26      CTL2    -0.180000       12.0110           0
      6931 MEMB     52       POPC     H6R      HAL2     0.900000E-01   1.00800           0
      6932 MEMB     52       POPC     H6S      HAL2     0.900000E-01   1.00800           0
      6933 MEMB     52       POPC     C27      CTL2    -0.180000       12.0110           0
      6934 MEMB     52       POPC     H7R      HAL2     0.900000E-01   1.00800           0
      6935 MEMB     52       POPC     H7S      HAL2     0.900000E-01   1.00800           0
      6936 MEMB     52       POPC     C28      CTL2    -0.180000       12.0110           0
      6937 MEMB     52       POPC     H8R      HAL2     0.900000E-01   1.00800           0
      6938 MEMB     52       POPC     H8S      HAL2     0.900000E-01   1.00800           0
      6939 MEMB     52       POPC     C29      CEL1    -0.150000       12.0110           0
      6940 MEMB     52       POPC     H91      HEL1     0.150000       1.00800           0
      6941 MEMB     52       POPC     C210     CEL1    -0.150000       12.0110           0
      6942 MEMB     52       POPC     H101     HEL1     0.150000       1.00800           0
      6943 MEMB     52       POPC     C211     CTL2    -0.180000       12.0110           0
      6944 MEMB     52       POPC     H11R     HAL2     0.900000E-01   1.00800           0
      6945 MEMB     52       POPC     H11S     HAL2     0.900000E-01   1.00800           0
      6946 MEMB     52       POPC     C212     CTL2    -0.180000       12.0110           0
      6947 MEMB     52       POPC     H12R     HAL2     0.900000E-01   1.00800           0
      6948 MEMB     52       POPC     H12S     HAL2     0.900000E-01   1.00800           0
      6949 MEMB     52       POPC     C213     CTL2    -0.180000       12.0110           0
      6950 MEMB     52       POPC     H13R     HAL2     0.900000E-01   1.00800           0
      6951 MEMB     52       POPC     H13S     HAL2     0.900000E-01   1.00800           0
      6952 MEMB     52       POPC     C214     CTL2    -0.180000       12.0110           0
      6953 MEMB     52       POPC     H14R     HAL2     0.900000E-01   1.00800           0
      6954 MEMB     52       POPC     H14S     HAL2     0.900000E-01   1.00800           0
      6955 MEMB     52       POPC     C215     CTL2    -0.180000       12.0110           0
      6956 MEMB     52       POPC     H15R     HAL2     0.900000E-01   1.00800           0
      6957 MEMB     52       POPC     H15S     HAL2     0.900000E-01   1.00800           0
      6958 MEMB     52       POPC     C216     CTL2    -0.180000       12.0110           0
      6959 MEMB     52       POPC     H16R     HAL2     0.900000E-01   1.00800           0
      6960 MEMB     52       POPC     H16S     HAL2     0.900000E-01   1.00800           0
      6961 MEMB     52       POPC     C217     CTL2    -0.180000       12.0110           0
      6962 MEMB     52       POPC     H17R     HAL2     0.900000E-01   1.00800           0
      6963 MEMB     52       POPC     H17S     HAL2     0.900000E-01   1.00800           0
      6964 MEMB     52       POPC     C218     CTL3    -0.270000       12.0110           0
      6965 MEMB     52       POPC     H18R     HAL3     0.900000E-01   1.00800           0
      6966 MEMB     52       POPC     H18S     HAL3     0.900000E-01   1.00800           0
      6967 MEMB     52       POPC     H18T     HAL3     0.900000E-01   1.00800           0
      6968 MEMB     52       POPC     C33      CTL2    -0.180000       12.0110           0
      6969 MEMB     52       POPC     H3X      HAL2     0.900000E-01   1.00800           0
      6970 MEMB     52       POPC     H3Y      HAL2     0.900000E-01   1.00800           0
      6971 MEMB     52       POPC     C34      CTL2    -0.180000       12.0110           0
      6972 MEMB     52       POPC     H4X      HAL2     0.900000E-01   1.00800           0
      6973 MEMB     52       POPC     H4Y      HAL2     0.900000E-01   1.00800           0
      6974 MEMB     52       POPC     C35      CTL2    -0.180000       12.0110           0
      6975 MEMB     52       POPC     H5X      HAL2     0.900000E-01   1.00800           0
      6976 MEMB     52       POPC     H5Y      HAL2     0.900000E-01   1.00800           0
      6977 MEMB     52       POPC     C36      CTL2    -0.180000       12.0110           0
      6978 MEMB     52       POPC     H6X      HAL2     0.900000E-01   1.00800           0
      6979 MEMB     52       POPC     H6Y      HAL2     0.900000E-01   1.00800           0
      6980 MEMB     52       POPC     C37      CTL2    -0.180000       12.0110           0
      6981 MEMB     52       POPC     H7X      HAL2     0.900000E-01   1.00800           0
      6982 MEMB     52       POPC     H7Y      HAL2     0.900000E-01   1.00800           0
      6983 MEMB     52       POPC     C38      CTL2    -0.180000       12.0110           0
      6984 MEMB     52       POPC     H8X      HAL2     0.900000E-01   1.00800           0
      6985 MEMB     52       POPC     H8Y      HAL2     0.900000E-01   1.00800           0
      6986 MEMB     52       POPC     C39      CTL2    -0.180000       12.0110           0
      6987 MEMB     52       POPC     H9X      HAL2     0.900000E-01   1.00800           0
      6988 MEMB     52       POPC     H9Y      HAL2     0.900000E-01   1.00800           0
      6989 MEMB     52       POPC     C310     CTL2    -0.180000       12.0110           0
      6990 MEMB     52       POPC     H10X     HAL2     0.900000E-01   1.00800           0
      6991 MEMB     52       POPC     H10Y     HAL2     0.900000E-01   1.00800           0
      6992 MEMB     52       POPC     C311     CTL2    -0.180000       12.0110           0
      6993 MEMB     52       POPC     H11X     HAL2     0.900000E-01   1.00800           0
      6994 MEMB     52       POPC     H11Y     HAL2     0.900000E-01   1.00800           0
      6995 MEMB     52       POPC     C312     CTL2    -0.180000       12.0110           0
      6996 MEMB     52       POPC     H12X     HAL2     0.900000E-01   1.00800           0
      6997 MEMB     52       POPC     H12Y     HAL2     0.900000E-01   1.00800           0
      6998 MEMB     52       POPC     C313     CTL2    -0.180000       12.0110           0
      6999 MEMB     52       POPC     H13X     HAL2     0.900000E-01   1.00800           0
      7000 MEMB     52       POPC     H13Y     HAL2     0.900000E-01   1.00800           0
      7001 MEMB     52       POPC     C314     CTL2    -0.180000       12.0110           0
      7002 MEMB     52       POPC     H14X     HAL2     0.900000E-01   1.00800           0
      7003 MEMB     52       POPC     H14Y     HAL2     0.900000E-01   1.00800           0
      7004 MEMB     52       POPC     C315     CTL2    -0.180000       12.0110           0
      7005 MEMB     52       POPC     H15X     HAL2     0.900000E-01   1.00800           0
      7006 MEMB     52       POPC     H15Y     HAL2     0.900000E-01   1.00800           0
      7007 MEMB     52       POPC     C316     CTL3    -0.270000       12.0110           0
      7008 MEMB     52       POPC     H16X     HAL3     0.900000E-01   1.00800           0
      7009 MEMB     52       POPC     H16Y     HAL3     0.900000E-01   1.00800           0
      7010 MEMB     52       POPC     H16Z     HAL3     0.900000E-01   1.00800           0
      7011 MEMB     53       POPC     N        NTL     -0.600000       14.0070           0
      7012 MEMB     53       POPC     C12      CTL2    -0.100000       12.0110           0
      7013 MEMB     53       POPC     H12A     HL       0.250000       1.00800           0
      7014 MEMB     53       POPC     H12B     HL       0.250000       1.00800           0
      7015 MEMB     53       POPC     C13      CTL5    -0.350000       12.0110           0
      7016 MEMB     53       POPC     H13A     HL       0.250000       1.00800           0
      7017 MEMB     53       POPC     H13B     HL       0.250000       1.00800           0
      7018 MEMB     53       POPC     H13C     HL       0.250000       1.00800           0
      7019 MEMB     53       POPC     C14      CTL5    -0.350000       12.0110           0
      7020 MEMB     53       POPC     H14A     HL       0.250000       1.00800           0
      7021 MEMB     53       POPC     H14B     HL       0.250000       1.00800           0
      7022 MEMB     53       POPC     H14C     HL       0.250000       1.00800           0
      7023 MEMB     53       POPC     C15      CTL5    -0.350000       12.0110           0
      7024 MEMB     53       POPC     H15A     HL       0.250000       1.00800           0
      7025 MEMB     53       POPC     H15B     HL       0.250000       1.00800           0
      7026 MEMB     53       POPC     H15C     HL       0.250000       1.00800           0
      7027 MEMB     53       POPC     C11      CTL2    -0.800000E-01   12.0110           0
      7028 MEMB     53       POPC     H11A     HAL2     0.900000E-01   1.00800           0
      7029 MEMB     53       POPC     H11B     HAL2     0.900000E-01   1.00800           0
      7030 MEMB     53       POPC     P        PL       1.500000       30.9740           0
      7031 MEMB     53       POPC     O13      O2L     -0.780000       15.9994           0
      7032 MEMB     53       POPC     O14      O2L     -0.780000       15.9994           0
      7033 MEMB     53       POPC     O12      OSLP    -0.570000       15.9994           0
      7034 MEMB     53       POPC     O11      OSLP    -0.570000       15.9994           0
      7035 MEMB     53       POPC     C1       CTL2    -0.800000E-01   12.0110           0
      7036 MEMB     53       POPC     HA       HAL2     0.900000E-01   1.00800           0
      7037 MEMB     53       POPC     HB       HAL2     0.900000E-01   1.00800           0
      7038 MEMB     53       POPC     C2       CTL1     0.170000       12.0110           0
      7039 MEMB     53       POPC     HS       HAL1     0.900000E-01   1.00800           0
      7040 MEMB     53       POPC     O21      OSL     -0.490000       15.9994           0
      7041 MEMB     53       POPC     C21      CL       0.900000       12.0110           0
      7042 MEMB     53       POPC     O22      OBL     -0.630000       15.9994           0
      7043 MEMB     53       POPC     C22      CTL2    -0.220000       12.0110           0
      7044 MEMB     53       POPC     H2R      HAL2     0.900000E-01   1.00800           0
      7045 MEMB     53       POPC     H2S      HAL2     0.900000E-01   1.00800           0
      7046 MEMB     53       POPC     C3       CTL2     0.800000E-01   12.0110           0
      7047 MEMB     53       POPC     HX       HAL2     0.900000E-01   1.00800           0
      7048 MEMB     53       POPC     HY       HAL2     0.900000E-01   1.00800           0
      7049 MEMB     53       POPC     O31      OSL     -0.490000       15.9994           0
      7050 MEMB     53       POPC     C31      CL       0.900000       12.0110           0
      7051 MEMB     53       POPC     O32      OBL     -0.630000       15.9994           0
      7052 MEMB     53       POPC     C32      CTL2    -0.220000       12.0110           0
      7053 MEMB     53       POPC     H2X      HAL2     0.900000E-01   1.00800           0
      7054 MEMB     53       POPC     H2Y      HAL2     0.900000E-01   1.00800           0
      7055 MEMB     53       POPC     C23      CTL2    -0.180000       12.0110           0
      7056 MEMB     53       POPC     H3R      HAL2     0.900000E-01   1.00800           0
      7057 MEMB     53       POPC     H3S      HAL2     0.900000E-01   1.00800           0
      7058 MEMB     53       POPC     C24      CTL2    -0.180000       12.0110           0
      7059 MEMB     53       POPC     H4R      HAL2     0.900000E-01   1.00800           0
      7060 MEMB     53       POPC     H4S      HAL2     0.900000E-01   1.00800           0
      7061 MEMB     53       POPC     C25      CTL2    -0.180000       12.0110           0
      7062 MEMB     53       POPC     H5R      HAL2     0.900000E-01   1.00800           0
      7063 MEMB     53       POPC     H5S      HAL2     0.900000E-01   1.00800           0
      7064 MEMB     53       POPC     C26      CTL2    -0.180000       12.0110           0
      7065 MEMB     53       POPC     H6R      HAL2     0.900000E-01   1.00800           0
      7066 MEMB     53       POPC     H6S      HAL2     0.900000E-01   1.00800           0
      7067 MEMB     53       POPC     C27      CTL2    -0.180000       12.0110           0
      7068 MEMB     53       POPC     H7R      HAL2     0.900000E-01   1.00800           0
      7069 MEMB     53       POPC     H7S      HAL2     0.900000E-01   1.00800           0
      7070 MEMB     53       POPC     C28      CTL2    -0.180000       12.0110           0
      7071 MEMB     53       POPC     H8R      HAL2     0.900000E-01   1.00800           0
      7072 MEMB     53       POPC     H8S      HAL2     0.900000E-01   1.00800           0
      7073 MEMB     53       POPC     C29      CEL1    -0.150000       12.0110           0
      7074 MEMB     53       POPC     H91      HEL1     0.150000       1.00800           0
      7075 MEMB     53       POPC     C210     CEL1    -0.150000       12.0110           0
      7076 MEMB     53       POPC     H101     HEL1     0.150000       1.00800           0
      7077 MEMB     53       POPC     C211     CTL2    -0.180000       12.0110           0
      7078 MEMB     53       POPC     H11R     HAL2     0.900000E-01   1.00800           0
      7079 MEMB     53       POPC     H11S     HAL2     0.900000E-01   1.00800           0
      7080 MEMB     53       POPC     C212     CTL2    -0.180000       12.0110           0
      7081 MEMB     53       POPC     H12R     HAL2     0.900000E-01   1.00800           0
      7082 MEMB     53       POPC     H12S     HAL2     0.900000E-01   1.00800           0
      7083 MEMB     53       POPC     C213     CTL2    -0.180000       12.0110           0
      7084 MEMB     53       POPC     H13R     HAL2     0.900000E-01   1.00800           0
      7085 MEMB     53       POPC     H13S     HAL2     0.900000E-01   1.00800           0
      7086 MEMB     53       POPC     C214     CTL2    -0.180000       12.0110           0
      7087 MEMB     53       POPC     H14R     HAL2     0.900000E-01   1.00800           0
      7088 MEMB     53       POPC     H14S     HAL2     0.900000E-01   1.00800           0
      7089 MEMB     53       POPC     C215     CTL2    -0.180000       12.0110           0
      7090 MEMB     53       POPC     H15R     HAL2     0.900000E-01   1.00800           0
      7091 MEMB     53       POPC     H15S     HAL2     0.900000E-01   1.00800           0
      7092 MEMB     53       POPC     C216     CTL2    -0.180000       12.0110           0
      7093 MEMB     53       POPC     H16R     HAL2     0.900000E-01   1.00800           0
      7094 MEMB     53       POPC     H16S     HAL2     0.900000E-01   1.00800           0
      7095 MEMB     53       POPC     C217     CTL2    -0.180000       12.0110           0
      7096 MEMB     53       POPC     H17R     HAL2     0.900000E-01   1.00800           0
      7097 MEMB     53       POPC     H17S     HAL2     0.900000E-01   1.00800           0
      7098 MEMB     53       POPC     C218     CTL3    -0.270000       12.0110           0
      7099 MEMB     53       POPC     H18R     HAL3     0.900000E-01   1.00800           0
      7100 MEMB     53       POPC     H18S     HAL3     0.900000E-01   1.00800           0
      7101 MEMB     53       POPC     H18T     HAL3     0.900000E-01   1.00800           0
      7102 MEMB     53       POPC     C33      CTL2    -0.180000       12.0110           0
      7103 MEMB     53       POPC     H3X      HAL2     0.900000E-01   1.00800           0
      7104 MEMB     53       POPC     H3Y      HAL2     0.900000E-01   1.00800           0
      7105 MEMB     53       POPC     C34      CTL2    -0.180000       12.0110           0
      7106 MEMB     53       POPC     H4X      HAL2     0.900000E-01   1.00800           0
      7107 MEMB     53       POPC     H4Y      HAL2     0.900000E-01   1.00800           0
      7108 MEMB     53       POPC     C35      CTL2    -0.180000       12.0110           0
      7109 MEMB     53       POPC     H5X      HAL2     0.900000E-01   1.00800           0
      7110 MEMB     53       POPC     H5Y      HAL2     0.900000E-01   1.00800           0
      7111 MEMB     53       POPC     C36      CTL2    -0.180000       12.0110           0
      7112 MEMB     53       POPC     H6X      HAL2     0.900000E-01   1.00800           0
      7113 MEMB     53       POPC     H6Y      HAL2     0.900000E-01   1.00800           0
      7114 MEMB     53       POPC     C37      CTL2    -0.180000       12.0110           0
      7115 MEMB     53       POPC     H7X      HAL2     0.900000E-01   1.00800           0
      7116 MEMB     53       POPC     H7Y      HAL2     0.900000E-01   1.00800           0
      7117 MEMB     53       POPC     C38      CTL2    -0.180000       12.0110           0
      7118 MEMB     53       POPC     H8X      HAL2     0.900000E-01   1.00800           0
      7119 MEMB     53       POPC     H8Y      HAL2     0.900000E-01   1.00800           0
      7120 MEMB     53       POPC     C39      CTL2    -0.180000       12.0110           0
      7121 MEMB     53       POPC     H9X      HAL2     0.900000E-01   1.00800           0
      7122 MEMB     53       POPC     H9Y      HAL2     0.900000E-01   1.00800           0
      7123 MEMB     53       POPC     C310     CTL2    -0.180000       12.0110           0
      7124 MEMB     53       POPC     H10X     HAL2     0.900000E-01   1.00800           0
      7125 MEMB     53       POPC     H10Y     HAL2     0.900000E-01   1.00800           0
      7126 MEMB     53       POPC     C311     CTL2    -0.180000       12.0110           0
      7127 MEMB     53       POPC     H11X     HAL2     0.900000E-01   1.00800           0
      7128 MEMB     53       POPC     H11Y     HAL2     0.900000E-01   1.00800           0
      7129 MEMB     53       POPC     C312     CTL2    -0.180000       12.0110           0
      7130 MEMB     53       POPC     H12X     HAL2     0.900000E-01   1.00800           0
      7131 MEMB     53       POPC     H12Y     HAL2     0.900000E-01   1.00800           0
      7132 MEMB     53       POPC     C313     CTL2    -0.180000       12.0110           0
      7133 MEMB     53       POPC     H13X     HAL2     0.900000E-01   1.00800           0
      7134 MEMB     53       POPC     H13Y     HAL2     0.900000E-01   1.00800           0
      7135 MEMB     53       POPC     C314     CTL2    -0.180000       12.0110           0
      7136 MEMB     53       POPC     H14X     HAL2     0.900000E-01   1.00800           0
      7137 MEMB     53       POPC     H14Y     HAL2     0.900000E-01   1.00800           0
      7138 MEMB     53       POPC     C315     CTL2    -0.180000       12.0110           0
      7139 MEMB     53       POPC     H15X     HAL2     0.900000E-01   1.00800           0
      7140 MEMB     53       POPC     H15Y     HAL2     0.900000E-01   1.00800           0
      7141 MEMB     53       POPC     C316     CTL3    -0.270000       12.0110           0
      7142 MEMB     53       POPC     H16X     HAL3     0.900000E-01   1.00800           0
      7143 MEMB     53       POPC     H16Y     HAL3     0.900000E-01   1.00800           0
      7144 MEMB     53       POPC     H16Z     HAL3     0.900000E-01   1.00800           0
      7145 MEMB     54       POPC     N        NTL     -0.600000       14.0070           0
      7146 MEMB     54       POPC     C12      CTL2    -0.100000       12.0110           0
      7147 MEMB     54       POPC     H12A     HL       0.250000       1.00800           0
      7148 MEMB     54       POPC     H12B     HL       0.250000       1.00800           0
      7149 MEMB     54       POPC     C13      CTL5    -0.350000       12.0110           0
      7150 MEMB     54       POPC     H13A     HL       0.250000       1.00800           0
      7151 MEMB     54       POPC     H13B     HL       0.250000       1.00800           0
      7152 MEMB     54       POPC     H13C     HL       0.250000       1.00800           0
      7153 MEMB     54       POPC     C14      CTL5    -0.350000       12.0110           0
      7154 MEMB     54       POPC     H14A     HL       0.250000       1.00800           0
      7155 MEMB     54       POPC     H14B     HL       0.250000       1.00800           0
      7156 MEMB     54       POPC     H14C     HL       0.250000       1.00800           0
      7157 MEMB     54       POPC     C15      CTL5    -0.350000       12.0110           0
      7158 MEMB     54       POPC     H15A     HL       0.250000       1.00800           0
      7159 MEMB     54       POPC     H15B     HL       0.250000       1.00800           0
      7160 MEMB     54       POPC     H15C     HL       0.250000       1.00800           0
      7161 MEMB     54       POPC     C11      CTL2    -0.800000E-01   12.0110           0
      7162 MEMB     54       POPC     H11A     HAL2     0.900000E-01   1.00800           0
      7163 MEMB     54       POPC     H11B     HAL2     0.900000E-01   1.00800           0
      7164 MEMB     54       POPC     P        PL       1.500000       30.9740           0
      7165 MEMB     54       POPC     O13      O2L     -0.780000       15.9994           0
      7166 MEMB     54       POPC     O14      O2L     -0.780000       15.9994           0
      7167 MEMB     54       POPC     O12      OSLP    -0.570000       15.9994           0
      7168 MEMB     54       POPC     O11      OSLP    -0.570000       15.9994           0
      7169 MEMB     54       POPC     C1       CTL2    -0.800000E-01   12.0110           0
      7170 MEMB     54       POPC     HA       HAL2     0.900000E-01   1.00800           0
      7171 MEMB     54       POPC     HB       HAL2     0.900000E-01   1.00800           0
      7172 MEMB     54       POPC     C2       CTL1     0.170000       12.0110           0
      7173 MEMB     54       POPC     HS       HAL1     0.900000E-01   1.00800           0
      7174 MEMB     54       POPC     O21      OSL     -0.490000       15.9994           0
      7175 MEMB     54       POPC     C21      CL       0.900000       12.0110           0
      7176 MEMB     54       POPC     O22      OBL     -0.630000       15.9994           0
      7177 MEMB     54       POPC     C22      CTL2    -0.220000       12.0110           0
      7178 MEMB     54       POPC     H2R      HAL2     0.900000E-01   1.00800           0
      7179 MEMB     54       POPC     H2S      HAL2     0.900000E-01   1.00800           0
      7180 MEMB     54       POPC     C3       CTL2     0.800000E-01   12.0110           0
      7181 MEMB     54       POPC     HX       HAL2     0.900000E-01   1.00800           0
      7182 MEMB     54       POPC     HY       HAL2     0.900000E-01   1.00800           0
      7183 MEMB     54       POPC     O31      OSL     -0.490000       15.9994           0
      7184 MEMB     54       POPC     C31      CL       0.900000       12.0110           0
      7185 MEMB     54       POPC     O32      OBL     -0.630000       15.9994           0
      7186 MEMB     54       POPC     C32      CTL2    -0.220000       12.0110           0
      7187 MEMB     54       POPC     H2X      HAL2     0.900000E-01   1.00800           0
      7188 MEMB     54       POPC     H2Y      HAL2     0.900000E-01   1.00800           0
      7189 MEMB     54       POPC     C23      CTL2    -0.180000       12.0110           0
      7190 MEMB     54       POPC     H3R      HAL2     0.900000E-01   1.00800           0
      7191 MEMB     54       POPC     H3S      HAL2     0.900000E-01   1.00800           0
      7192 MEMB     54       POPC     C24      CTL2    -0.180000       12.0110           0
      7193 MEMB     54       POPC     H4R      HAL2     0.900000E-01   1.00800           0
      7194 MEMB     54       POPC     H4S      HAL2     0.900000E-01   1.00800           0
      7195 MEMB     54       POPC     C25      CTL2    -0.180000       12.0110           0
      7196 MEMB     54       POPC     H5R      HAL2     0.900000E-01   1.00800           0
      7197 MEMB     54       POPC     H5S      HAL2     0.900000E-01   1.00800           0
      7198 MEMB     54       POPC     C26      CTL2    -0.180000       12.0110           0
      7199 MEMB     54       POPC     H6R      HAL2     0.900000E-01   1.00800           0
      7200 MEMB     54       POPC     H6S      HAL2     0.900000E-01   1.00800           0
      7201 MEMB     54       POPC     C27      CTL2    -0.180000       12.0110           0
      7202 MEMB     54       POPC     H7R      HAL2     0.900000E-01   1.00800           0
      7203 MEMB     54       POPC     H7S      HAL2     0.900000E-01   1.00800           0
      7204 MEMB     54       POPC     C28      CTL2    -0.180000       12.0110           0
      7205 MEMB     54       POPC     H8R      HAL2     0.900000E-01   1.00800           0
      7206 MEMB     54       POPC     H8S      HAL2     0.900000E-01   1.00800           0
      7207 MEMB     54       POPC     C29      CEL1    -0.150000       12.0110           0
      7208 MEMB     54       POPC     H91      HEL1     0.150000       1.00800           0
      7209 MEMB     54       POPC     C210     CEL1    -0.150000       12.0110           0
      7210 MEMB     54       POPC     H101     HEL1     0.150000       1.00800           0
      7211 MEMB     54       POPC     C211     CTL2    -0.180000       12.0110           0
      7212 MEMB     54       POPC     H11R     HAL2     0.900000E-01   1.00800           0
      7213 MEMB     54       POPC     H11S     HAL2     0.900000E-01   1.00800           0
      7214 MEMB     54       POPC     C212     CTL2    -0.180000       12.0110           0
      7215 MEMB     54       POPC     H12R     HAL2     0.900000E-01   1.00800           0
      7216 MEMB     54       POPC     H12S     HAL2     0.900000E-01   1.00800           0
      7217 MEMB     54       POPC     C213     CTL2    -0.180000       12.0110           0
      7218 MEMB     54       POPC     H13R     HAL2     0.900000E-01   1.00800           0
      7219 MEMB     54       POPC     H13S     HAL2     0.900000E-01   1.00800           0
      7220 MEMB     54       POPC     C214     CTL2    -0.180000       12.0110           0
      7221 MEMB     54       POPC     H14R     HAL2     0.900000E-01   1.00800           0
      7222 MEMB     54       POPC     H14S     HAL2     0.900000E-01   1.00800           0
      7223 MEMB     54       POPC     C215     CTL2    -0.180000       12.0110           0
      7224 MEMB     54       POPC     H15R     HAL2     0.900000E-01   1.00800           0
      7225 MEMB     54       POPC     H15S     HAL2     0.900000E-01   1.00800           0
      7226 MEMB     54       POPC     C216     CTL2    -0.180000       12.0110           0
      7227 MEMB     54       POPC     H16R     HAL2     0.900000E-01   1.00800           0
      7228 MEMB     54       POPC     H16S     HAL2     0.900000E-01   1.00800           0
      7229 MEMB     54       POPC     C217     CTL2    -0.180000       12.0110           0
      7230 MEMB     54       POPC     H17R     HAL2     0.900000E-01   1.00800           0
      7231 MEMB     54       POPC     H17S     HAL2     0.900000E-01   1.00800           0
      7232 MEMB     54       POPC     C218     CTL3    -0.270000       12.0110           0
      7233 MEMB     54       POPC     H18R     HAL3     0.900000E-01   1.00800           0
      7234 MEMB     54       POPC     H18S     HAL3     0.900000E-01   1.00800           0
      7235 MEMB     54       POPC     H18T     HAL3     0.900000E-01   1.00800           0
      7236 MEMB     54       POPC     C33      CTL2    -0.180000       12.0110           0
      7237 MEMB     54       POPC     H3X      HAL2     0.900000E-01   1.00800           0
      7238 MEMB     54       POPC     H3Y      HAL2     0.900000E-01   1.00800           0
      7239 MEMB     54       POPC     C34      CTL2    -0.180000       12.0110           0
      7240 MEMB     54       POPC     H4X      HAL2     0.900000E-01   1.00800           0
      7241 MEMB     54       POPC     H4Y      HAL2     0.900000E-01   1.00800           0
      7242 MEMB     54       POPC     C35      CTL2    -0.180000       12.0110           0
      7243 MEMB     54       POPC     H5X      HAL2     0.900000E-01   1.00800           0
      7244 MEMB     54       POPC     H5Y      HAL2     0.900000E-01   1.00800           0
      7245 MEMB     54       POPC     C36      CTL2    -0.180000       12.0110           0
      7246 MEMB     54       POPC     H6X      HAL2     0.900000E-01   1.00800           0
      7247 MEMB     54       POPC     H6Y      HAL2     0.900000E-01   1.00800           0
      7248 MEMB     54       POPC     C37      CTL2    -0.180000       12.0110           0
      7249 MEMB     54       POPC     H7X      HAL2     0.900000E-01   1.00800           0
      7250 MEMB     54       POPC     H7Y      HAL2     0.900000E-01   1.00800           0
      7251 MEMB     54       POPC     C38      CTL2    -0.180000       12.0110           0
      7252 MEMB     54       POPC     H8X      HAL2     0.900000E-01   1.00800           0
      7253 MEMB     54       POPC     H8Y      HAL2     0.900000E-01   1.00800           0
      7254 MEMB     54       POPC     C39      CTL2    -0.180000       12.0110           0
      7255 MEMB     54       POPC     H9X      HAL2     0.900000E-01   1.00800           0
      7256 MEMB     54       POPC     H9Y      HAL2     0.900000E-01   1.00800           0
      7257 MEMB     54       POPC     C310     CTL2    -0.180000       12.0110           0
      7258 MEMB     54       POPC     H10X     HAL2     0.900000E-01   1.00800           0
      7259 MEMB     54       POPC     H10Y     HAL2     0.900000E-01   1.00800           0
      7260 MEMB     54       POPC     C311     CTL2    -0.180000       12.0110           0
      7261 MEMB     54       POPC     H11X     HAL2     0.900000E-01   1.00800           0
      7262 MEMB     54       POPC     H11Y     HAL2     0.900000E-01   1.00800           0
      7263 MEMB     54       POPC     C312     CTL2    -0.180000       12.0110           0
      7264 MEMB     54       POPC     H12X     HAL2     0.900000E-01   1.00800           0
      7265 MEMB     54       POPC     H12Y     HAL2     0.900000E-01   1.00800           0
      7266 MEMB     54       POPC     C313     CTL2    -0.180000       12.0110           0
      7267 MEMB     54       POPC     H13X     HAL2     0.900000E-01   1.00800           0
      7268 MEMB     54       POPC     H13Y     HAL2     0.900000E-01   1.00800           0
      7269 MEMB     54       POPC     C314     CTL2    -0.180000       12.0110           0
      7270 MEMB     54       POPC     H14X     HAL2     0.900000E-01   1.00800           0
      7271 MEMB     54       POPC     H14Y     HAL2     0.900000E-01   1.00800           0
      7272 MEMB     54       POPC     C315     CTL2    -0.180000       12.0110           0
      7273 MEMB     54       POPC     H15X     HAL2     0.900000E-01   1.00800           0
      7274 MEMB     54       POPC     H15Y     HAL2     0.900000E-01   1.00800           0
      7275 MEMB     54       POPC     C316     CTL3    -0.270000       12.0110           0
      7276 MEMB     54       POPC     H16X     HAL3     0.900000E-01   1.00800           0
      7277 MEMB     54       POPC     H16Y     HAL3     0.900000E-01   1.00800           0
      7278 MEMB     54       POPC     H16Z     HAL3     0.900000E-01   1.00800           0
      7279 MEMB     55       POPS     N        NH3L    -0.300000       14.0070           0
      7280 MEMB     55       POPS     HN1      HCL      0.330000       1.00800           0
      7281 MEMB     55       POPS     HN2      HCL      0.330000       1.00800           0
      7282 MEMB     55       POPS     HN3      HCL      0.330000       1.00800           0
      7283 MEMB     55       POPS     C12      CTL1     0.210000       12.0110           0
      7284 MEMB     55       POPS     H12A     HBL      0.100000       1.00800           0
      7285 MEMB     55       POPS     C13      CCL      0.340000       12.0110           0
      7286 MEMB     55       POPS     O13A     OCL     -0.670000       15.9994           0
      7287 MEMB     55       POPS     O13B     OCL     -0.670000       15.9994           0
      7288 MEMB     55       POPS     C11      CTL2    -0.800000E-01   12.0110           0
      7289 MEMB     55       POPS     H11A     HAL2     0.900000E-01   1.00800           0
      7290 MEMB     55       POPS     H11B     HAL2     0.900000E-01   1.00800           0
      7291 MEMB     55       POPS     P        PL       1.500000       30.9740           0
      7292 MEMB     55       POPS     O13      O2L     -0.780000       15.9994           0
      7293 MEMB     55       POPS     O14      O2L     -0.780000       15.9994           0
      7294 MEMB     55       POPS     O12      OSLP    -0.570000       15.9994           0
      7295 MEMB     55       POPS     O11      OSLP    -0.570000       15.9994           0
      7296 MEMB     55       POPS     C1       CTL2    -0.800000E-01   12.0110           0
      7297 MEMB     55       POPS     HA       HAL2     0.900000E-01   1.00800           0
      7298 MEMB     55       POPS     HB       HAL2     0.900000E-01   1.00800           0
      7299 MEMB     55       POPS     C2       CTL1     0.170000       12.0110           0
      7300 MEMB     55       POPS     HS       HAL1     0.900000E-01   1.00800           0
      7301 MEMB     55       POPS     O21      OSL     -0.490000       15.9994           0
      7302 MEMB     55       POPS     C21      CL       0.900000       12.0110           0
      7303 MEMB     55       POPS     O22      OBL     -0.630000       15.9994           0
      7304 MEMB     55       POPS     C22      CTL2    -0.220000       12.0110           0
      7305 MEMB     55       POPS     H2R      HAL2     0.900000E-01   1.00800           0
      7306 MEMB     55       POPS     H2S      HAL2     0.900000E-01   1.00800           0
      7307 MEMB     55       POPS     C3       CTL2     0.800000E-01   12.0110           0
      7308 MEMB     55       POPS     HX       HAL2     0.900000E-01   1.00800           0
      7309 MEMB     55       POPS     HY       HAL2     0.900000E-01   1.00800           0
      7310 MEMB     55       POPS     O31      OSL     -0.490000       15.9994           0
      7311 MEMB     55       POPS     C31      CL       0.900000       12.0110           0
      7312 MEMB     55       POPS     O32      OBL     -0.630000       15.9994           0
      7313 MEMB     55       POPS     C32      CTL2    -0.220000       12.0110           0
      7314 MEMB     55       POPS     H2X      HAL2     0.900000E-01   1.00800           0
      7315 MEMB     55       POPS     H2Y      HAL2     0.900000E-01   1.00800           0
      7316 MEMB     55       POPS     C23      CTL2    -0.180000       12.0110           0
      7317 MEMB     55       POPS     H3R      HAL2     0.900000E-01   1.00800           0
      7318 MEMB     55       POPS     H3S      HAL2     0.900000E-01   1.00800           0
      7319 MEMB     55       POPS     C24      CTL2    -0.180000       12.0110           0
      7320 MEMB     55       POPS     H4R      HAL2     0.900000E-01   1.00800           0
      7321 MEMB     55       POPS     H4S      HAL2     0.900000E-01   1.00800           0
      7322 MEMB     55       POPS     C25      CTL2    -0.180000       12.0110           0
      7323 MEMB     55       POPS     H5R      HAL2     0.900000E-01   1.00800           0
      7324 MEMB     55       POPS     H5S      HAL2     0.900000E-01   1.00800           0
      7325 MEMB     55       POPS     C26      CTL2    -0.180000       12.0110           0
      7326 MEMB     55       POPS     H6R      HAL2     0.900000E-01   1.00800           0
      7327 MEMB     55       POPS     H6S      HAL2     0.900000E-01   1.00800           0
      7328 MEMB     55       POPS     C27      CTL2    -0.180000       12.0110           0
      7329 MEMB     55       POPS     H7R      HAL2     0.900000E-01   1.00800           0
      7330 MEMB     55       POPS     H7S      HAL2     0.900000E-01   1.00800           0
      7331 MEMB     55       POPS     C28      CTL2    -0.180000       12.0110           0
      7332 MEMB     55       POPS     H8R      HAL2     0.900000E-01   1.00800           0
      7333 MEMB     55       POPS     H8S      HAL2     0.900000E-01   1.00800           0
      7334 MEMB     55       POPS     C29      CEL1    -0.150000       12.0110           0
      7335 MEMB     55       POPS     H91      HEL1     0.150000       1.00800           0
      7336 MEMB     55       POPS     C210     CEL1    -0.150000       12.0110           0
      7337 MEMB     55       POPS     H101     HEL1     0.150000       1.00800           0
      7338 MEMB     55       POPS     C211     CTL2    -0.180000       12.0110           0
      7339 MEMB     55       POPS     H11R     HAL2     0.900000E-01   1.00800           0
      7340 MEMB     55       POPS     H11S     HAL2     0.900000E-01   1.00800           0
      7341 MEMB     55       POPS     C212     CTL2    -0.180000       12.0110           0
      7342 MEMB     55       POPS     H12R     HAL2     0.900000E-01   1.00800           0
      7343 MEMB     55       POPS     H12S     HAL2     0.900000E-01   1.00800           0
      7344 MEMB     55       POPS     C213     CTL2    -0.180000       12.0110           0
      7345 MEMB     55       POPS     H13R     HAL2     0.900000E-01   1.00800           0
      7346 MEMB     55       POPS     H13S     HAL2     0.900000E-01   1.00800           0
      7347 MEMB     55       POPS     C214     CTL2    -0.180000       12.0110           0
      7348 MEMB     55       POPS     H14R     HAL2     0.900000E-01   1.00800           0
      7349 MEMB     55       POPS     H14S     HAL2     0.900000E-01   1.00800           0
      7350 MEMB     55       POPS     C215     CTL2    -0.180000       12.0110           0
      7351 MEMB     55       POPS     H15R     HAL2     0.900000E-01   1.00800           0
      7352 MEMB     55       POPS     H15S     HAL2     0.900000E-01   1.00800           0
      7353 MEMB     55       POPS     C216     CTL2    -0.180000       12.0110           0
      7354 MEMB     55       POPS     H16R     HAL2     0.900000E-01   1.00800           0
      7355 MEMB     55       POPS     H16S     HAL2     0.900000E-01   1.00800           0
      7356 MEMB     55       POPS     C217     CTL2    -0.180000       12.0110           0
      7357 MEMB     55       POPS     H17R     HAL2     0.900000E-01   1.00800           0
      7358 MEMB     55       POPS     H17S     HAL2     0.900000E-01   1.00800           0
      7359 MEMB     55       POPS     C218     CTL3    -0.270000       12.0110           0
      7360 MEMB     55       POPS     H18R     HAL3     0.900000E-01   1.00800           0
      7361 MEMB     55       POPS     H18S     HAL3     0.900000E-01   1.00800           0
      7362 MEMB     55       POPS     H18T     HAL3     0.900000E-01   1.00800           0
      7363 MEMB     55       POPS     C33      CTL2    -0.180000       12.0110           0
      7364 MEMB     55       POPS     H3X      HAL2     0.900000E-01   1.00800           0
      7365 MEMB     55       POPS     H3Y      HAL2     0.900000E-01   1.00800           0
      7366 MEMB     55       POPS     C34      CTL2    -0.180000       12.0110           0
      7367 MEMB     55       POPS     H4X      HAL2     0.900000E-01   1.00800           0
      7368 MEMB     55       POPS     H4Y      HAL2     0.900000E-01   1.00800           0
      7369 MEMB     55       POPS     C35      CTL2    -0.180000       12.0110           0
      7370 MEMB     55       POPS     H5X      HAL2     0.900000E-01   1.00800           0
      7371 MEMB     55       POPS     H5Y      HAL2     0.900000E-01   1.00800           0
      7372 MEMB     55       POPS     C36      CTL2    -0.180000       12.0110           0
      7373 MEMB     55       POPS     H6X      HAL2     0.900000E-01   1.00800           0
      7374 MEMB     55       POPS     H6Y      HAL2     0.900000E-01   1.00800           0
      7375 MEMB     55       POPS     C37      CTL2    -0.180000       12.0110           0
      7376 MEMB     55       POPS     H7X      HAL2     0.900000E-01   1.00800           0
      7377 MEMB     55       POPS     H7Y      HAL2     0.900000E-01   1.00800           0
      7378 MEMB     55       POPS     C38      CTL2    -0.180000       12.0110           0
      7379 MEMB     55       POPS     H8X      HAL2     0.900000E-01   1.00800           0
      7380 MEMB     55       POPS     H8Y      HAL2     0.900000E-01   1.00800           0
      7381 MEMB     55       POPS     C39      CTL2    -0.180000       12.0110           0
      7382 MEMB     55       POPS     H9X      HAL2     0.900000E-01   1.00800           0
      7383 MEMB     55       POPS     H9Y      HAL2     0.900000E-01   1.00800           0
      7384 MEMB     55       POPS     C310     CTL2    -0.180000       12.0110           0
      7385 MEMB     55       POPS     H10X     HAL2     0.900000E-01   1.00800           0
      7386 MEMB     55       POPS     H10Y     HAL2     0.900000E-01   1.00800           0
      7387 MEMB     55       POPS     C311     CTL2    -0.180000       12.0110           0
      7388 MEMB     55       POPS     H11X     HAL2     0.900000E-01   1.00800           0
      7389 MEMB     55       POPS     H11Y     HAL2     0.900000E-01   1.00800           0
      7390 MEMB     55       POPS     C312     CTL2    -0.180000       12.0110           0
      7391 MEMB     55       POPS     H12X     HAL2     0.900000E-01   1.00800           0
      7392 MEMB     55       POPS     H12Y     HAL2     0.900000E-01   1.00800           0
      7393 MEMB     55       POPS     C313     CTL2    -0.180000       12.0110           0
      7394 MEMB     55       POPS     H13X     HAL2     0.900000E-01   1.00800           0
      7395 MEMB     55       POPS     H13Y     HAL2     0.900000E-01   1.00800           0
      7396 MEMB     55       POPS     C314     CTL2    -0.180000       12.0110           0
      7397 MEMB     55       POPS     H14X     HAL2     0.900000E-01   1.00800           0
      7398 MEMB     55       POPS     H14Y     HAL2     0.900000E-01   1.00800           0
      7399 MEMB     55       POPS     C315     CTL2    -0.180000       12.0110           0
      7400 MEMB     55       POPS     H15X     HAL2     0.900000E-01   1.00800           0
      7401 MEMB     55       POPS     H15Y     HAL2     0.900000E-01   1.00800           0
      7402 MEMB     55       POPS     C316     CTL3    -0.270000       12.0110           0
      7403 MEMB     55       POPS     H16X     HAL3     0.900000E-01   1.00800           0
      7404 MEMB     55       POPS     H16Y     HAL3     0.900000E-01   1.00800           0
      7405 MEMB     55       POPS     H16Z     HAL3     0.900000E-01   1.00800           0
      7406 MEMB     56       POPC     N        NTL     -0.600000       14.0070           0
      7407 MEMB     56       POPC     C12      CTL2    -0.100000       12.0110           0
      7408 MEMB     56       POPC     H12A     HL       0.250000       1.00800           0
      7409 MEMB     56       POPC     H12B     HL       0.250000       1.00800           0
      7410 MEMB     56       POPC     C13      CTL5    -0.350000       12.0110           0
      7411 MEMB     56       POPC     H13A     HL       0.250000       1.00800           0
      7412 MEMB     56       POPC     H13B     HL       0.250000       1.00800           0
      7413 MEMB     56       POPC     H13C     HL       0.250000       1.00800           0
      7414 MEMB     56       POPC     C14      CTL5    -0.350000       12.0110           0
      7415 MEMB     56       POPC     H14A     HL       0.250000       1.00800           0
      7416 MEMB     56       POPC     H14B     HL       0.250000       1.00800           0
      7417 MEMB     56       POPC     H14C     HL       0.250000       1.00800           0
      7418 MEMB     56       POPC     C15      CTL5    -0.350000       12.0110           0
      7419 MEMB     56       POPC     H15A     HL       0.250000       1.00800           0
      7420 MEMB     56       POPC     H15B     HL       0.250000       1.00800           0
      7421 MEMB     56       POPC     H15C     HL       0.250000       1.00800           0
      7422 MEMB     56       POPC     C11      CTL2    -0.800000E-01   12.0110           0
      7423 MEMB     56       POPC     H11A     HAL2     0.900000E-01   1.00800           0
      7424 MEMB     56       POPC     H11B     HAL2     0.900000E-01   1.00800           0
      7425 MEMB     56       POPC     P        PL       1.500000       30.9740           0
      7426 MEMB     56       POPC     O13      O2L     -0.780000       15.9994           0
      7427 MEMB     56       POPC     O14      O2L     -0.780000       15.9994           0
      7428 MEMB     56       POPC     O12      OSLP    -0.570000       15.9994           0
      7429 MEMB     56       POPC     O11      OSLP    -0.570000       15.9994           0
      7430 MEMB     56       POPC     C1       CTL2    -0.800000E-01   12.0110           0
      7431 MEMB     56       POPC     HA       HAL2     0.900000E-01   1.00800           0
      7432 MEMB     56       POPC     HB       HAL2     0.900000E-01   1.00800           0
      7433 MEMB     56       POPC     C2       CTL1     0.170000       12.0110           0
      7434 MEMB     56       POPC     HS       HAL1     0.900000E-01   1.00800           0
      7435 MEMB     56       POPC     O21      OSL     -0.490000       15.9994           0
      7436 MEMB     56       POPC     C21      CL       0.900000       12.0110           0
      7437 MEMB     56       POPC     O22      OBL     -0.630000       15.9994           0
      7438 MEMB     56       POPC     C22      CTL2    -0.220000       12.0110           0
      7439 MEMB     56       POPC     H2R      HAL2     0.900000E-01   1.00800           0
      7440 MEMB     56       POPC     H2S      HAL2     0.900000E-01   1.00800           0
      7441 MEMB     56       POPC     C3       CTL2     0.800000E-01   12.0110           0
      7442 MEMB     56       POPC     HX       HAL2     0.900000E-01   1.00800           0
      7443 MEMB     56       POPC     HY       HAL2     0.900000E-01   1.00800           0
      7444 MEMB     56       POPC     O31      OSL     -0.490000       15.9994           0
      7445 MEMB     56       POPC     C31      CL       0.900000       12.0110           0
      7446 MEMB     56       POPC     O32      OBL     -0.630000       15.9994           0
      7447 MEMB     56       POPC     C32      CTL2    -0.220000       12.0110           0
      7448 MEMB     56       POPC     H2X      HAL2     0.900000E-01   1.00800           0
      7449 MEMB     56       POPC     H2Y      HAL2     0.900000E-01   1.00800           0
      7450 MEMB     56       POPC     C23      CTL2    -0.180000       12.0110           0
      7451 MEMB     56       POPC     H3R      HAL2     0.900000E-01   1.00800           0
      7452 MEMB     56       POPC     H3S      HAL2     0.900000E-01   1.00800           0
      7453 MEMB     56       POPC     C24      CTL2    -0.180000       12.0110           0
      7454 MEMB     56       POPC     H4R      HAL2     0.900000E-01   1.00800           0
      7455 MEMB     56       POPC     H4S      HAL2     0.900000E-01   1.00800           0
      7456 MEMB     56       POPC     C25      CTL2    -0.180000       12.0110           0
      7457 MEMB     56       POPC     H5R      HAL2     0.900000E-01   1.00800           0
      7458 MEMB     56       POPC     H5S      HAL2     0.900000E-01   1.00800           0
      7459 MEMB     56       POPC     C26      CTL2    -0.180000       12.0110           0
      7460 MEMB     56       POPC     H6R      HAL2     0.900000E-01   1.00800           0
      7461 MEMB     56       POPC     H6S      HAL2     0.900000E-01   1.00800           0
      7462 MEMB     56       POPC     C27      CTL2    -0.180000       12.0110           0
      7463 MEMB     56       POPC     H7R      HAL2     0.900000E-01   1.00800           0
      7464 MEMB     56       POPC     H7S      HAL2     0.900000E-01   1.00800           0
      7465 MEMB     56       POPC     C28      CTL2    -0.180000       12.0110           0
      7466 MEMB     56       POPC     H8R      HAL2     0.900000E-01   1.00800           0
      7467 MEMB     56       POPC     H8S      HAL2     0.900000E-01   1.00800           0
      7468 MEMB     56       POPC     C29      CEL1    -0.150000       12.0110           0
      7469 MEMB     56       POPC     H91      HEL1     0.150000       1.00800           0
      7470 MEMB     56       POPC     C210     CEL1    -0.150000       12.0110           0
      7471 MEMB     56       POPC     H101     HEL1     0.150000       1.00800           0
      7472 MEMB     56       POPC     C211     CTL2    -0.180000       12.0110           0
      7473 MEMB     56       POPC     H11R     HAL2     0.900000E-01   1.00800           0
      7474 MEMB     56       POPC     H11S     HAL2     0.900000E-01   1.00800           0
      7475 MEMB     56       POPC     C212     CTL2    -0.180000       12.0110           0
      7476 MEMB     56       POPC     H12R     HAL2     0.900000E-01   1.00800           0
      7477 MEMB     56       POPC     H12S     HAL2     0.900000E-01   1.00800           0
      7478 MEMB     56       POPC     C213     CTL2    -0.180000       12.0110           0
      7479 MEMB     56       POPC     H13R     HAL2     0.900000E-01   1.00800           0
      7480 MEMB     56       POPC     H13S     HAL2     0.900000E-01   1.00800           0
      7481 MEMB     56       POPC     C214     CTL2    -0.180000       12.0110           0
      7482 MEMB     56       POPC     H14R     HAL2     0.900000E-01   1.00800           0
      7483 MEMB     56       POPC     H14S     HAL2     0.900000E-01   1.00800           0
      7484 MEMB     56       POPC     C215     CTL2    -0.180000       12.0110           0
      7485 MEMB     56       POPC     H15R     HAL2     0.900000E-01   1.00800           0
      7486 MEMB     56       POPC     H15S     HAL2     0.900000E-01   1.00800           0
      7487 MEMB     56       POPC     C216     CTL2    -0.180000       12.0110           0
      7488 MEMB     56       POPC     H16R     HAL2     0.900000E-01   1.00800           0
      7489 MEMB     56       POPC     H16S     HAL2     0.900000E-01   1.00800           0
      7490 MEMB     56       POPC     C217     CTL2    -0.180000       12.0110           0
      7491 MEMB     56       POPC     H17R     HAL2     0.900000E-01   1.00800           0
      7492 MEMB     56       POPC     H17S     HAL2     0.900000E-01   1.00800           0
      7493 MEMB     56       POPC     C218     CTL3    -0.270000       12.0110           0
      7494 MEMB     56       POPC     H18R     HAL3     0.900000E-01   1.00800           0
      7495 MEMB     56       POPC     H18S     HAL3     0.900000E-01   1.00800           0
      7496 MEMB     56       POPC     H18T     HAL3     0.900000E-01   1.00800           0
      7497 MEMB     56       POPC     C33      CTL2    -0.180000       12.0110           0
      7498 MEMB     56       POPC     H3X      HAL2     0.900000E-01   1.00800           0
      7499 MEMB     56       POPC     H3Y      HAL2     0.900000E-01   1.00800           0
      7500 MEMB     56       POPC     C34      CTL2    -0.180000       12.0110           0
      7501 MEMB     56       POPC     H4X      HAL2     0.900000E-01   1.00800           0
      7502 MEMB     56       POPC     H4Y      HAL2     0.900000E-01   1.00800           0
      7503 MEMB     56       POPC     C35      CTL2    -0.180000       12.0110           0
      7504 MEMB     56       POPC     H5X      HAL2     0.900000E-01   1.00800           0
      7505 MEMB     56       POPC     H5Y      HAL2     0.900000E-01   1.00800           0
      7506 MEMB     56       POPC     C36      CTL2    -0.180000       12.0110           0
      7507 MEMB     56       POPC     H6X      HAL2     0.900000E-01   1.00800           0
      7508 MEMB     56       POPC     H6Y      HAL2     0.900000E-01   1.00800           0
      7509 MEMB     56       POPC     C37      CTL2    -0.180000       12.0110           0
      7510 MEMB     56       POPC     H7X      HAL2     0.900000E-01   1.00800           0
      7511 MEMB     56       POPC     H7Y      HAL2     0.900000E-01   1.00800           0
      7512 MEMB     56       POPC     C38      CTL2    -0.180000       12.0110           0
      7513 MEMB     56       POPC     H8X      HAL2     0.900000E-01   1.00800           0
      7514 MEMB     56       POPC     H8Y      HAL2     0.900000E-01   1.00800           0
      7515 MEMB     56       POPC     C39      CTL2    -0.180000       12.0110           0
      7516 MEMB     56       POPC     H9X      HAL2     0.900000E-01   1.00800           0
      7517 MEMB     56       POPC     H9Y      HAL2     0.900000E-01   1.00800           0
      7518 MEMB     56       POPC     C310     CTL2    -0.180000       12.0110           0
      7519 MEMB     56       POPC     H10X     HAL2     0.900000E-01   1.00800           0
      7520 MEMB     56       POPC     H10Y     HAL2     0.900000E-01   1.00800           0
      7521 MEMB     56       POPC     C311     CTL2    -0.180000       12.0110           0
      7522 MEMB     56       POPC     H11X     HAL2     0.900000E-01   1.00800           0
      7523 MEMB     56       POPC     H11Y     HAL2     0.900000E-01   1.00800           0
      7524 MEMB     56       POPC     C312     CTL2    -0.180000       12.0110           0
      7525 MEMB     56       POPC     H12X     HAL2     0.900000E-01   1.00800           0
      7526 MEMB     56       POPC     H12Y     HAL2     0.900000E-01   1.00800           0
      7527 MEMB     56       POPC     C313     CTL2    -0.180000       12.0110           0
      7528 MEMB     56       POPC     H13X     HAL2     0.900000E-01   1.00800           0
      7529 MEMB     56       POPC     H13Y     HAL2     0.900000E-01   1.00800           0
      7530 MEMB     56       POPC     C314     CTL2    -0.180000       12.0110           0
      7531 MEMB     56       POPC     H14X     HAL2     0.900000E-01   1.00800           0
      7532 MEMB     56       POPC     H14Y     HAL2     0.900000E-01   1.00800           0
      7533 MEMB     56       POPC     C315     CTL2    -0.180000       12.0110           0
      7534 MEMB     56       POPC     H15X     HAL2     0.900000E-01   1.00800           0
      7535 MEMB     56       POPC     H15Y     HAL2     0.900000E-01   1.00800           0
      7536 MEMB     56       POPC     C316     CTL3    -0.270000       12.0110           0
      7537 MEMB     56       POPC     H16X     HAL3     0.900000E-01   1.00800           0
      7538 MEMB     56       POPC     H16Y     HAL3     0.900000E-01   1.00800           0
      7539 MEMB     56       POPC     H16Z     HAL3     0.900000E-01   1.00800           0
      7540 MEMB     57       POPC     N        NTL     -0.600000       14.0070           0
      7541 MEMB     57       POPC     C12      CTL2    -0.100000       12.0110           0
      7542 MEMB     57       POPC     H12A     HL       0.250000       1.00800           0
      7543 MEMB     57       POPC     H12B     HL       0.250000       1.00800           0
      7544 MEMB     57       POPC     C13      CTL5    -0.350000       12.0110           0
      7545 MEMB     57       POPC     H13A     HL       0.250000       1.00800           0
      7546 MEMB     57       POPC     H13B     HL       0.250000       1.00800           0
      7547 MEMB     57       POPC     H13C     HL       0.250000       1.00800           0
      7548 MEMB     57       POPC     C14      CTL5    -0.350000       12.0110           0
      7549 MEMB     57       POPC     H14A     HL       0.250000       1.00800           0
      7550 MEMB     57       POPC     H14B     HL       0.250000       1.00800           0
      7551 MEMB     57       POPC     H14C     HL       0.250000       1.00800           0
      7552 MEMB     57       POPC     C15      CTL5    -0.350000       12.0110           0
      7553 MEMB     57       POPC     H15A     HL       0.250000       1.00800           0
      7554 MEMB     57       POPC     H15B     HL       0.250000       1.00800           0
      7555 MEMB     57       POPC     H15C     HL       0.250000       1.00800           0
      7556 MEMB     57       POPC     C11      CTL2    -0.800000E-01   12.0110           0
      7557 MEMB     57       POPC     H11A     HAL2     0.900000E-01   1.00800           0
      7558 MEMB     57       POPC     H11B     HAL2     0.900000E-01   1.00800           0
      7559 MEMB     57       POPC     P        PL       1.500000       30.9740           0
      7560 MEMB     57       POPC     O13      O2L     -0.780000       15.9994           0
      7561 MEMB     57       POPC     O14      O2L     -0.780000       15.9994           0
      7562 MEMB     57       POPC     O12      OSLP    -0.570000       15.9994           0
      7563 MEMB     57       POPC     O11      OSLP    -0.570000       15.9994           0
      7564 MEMB     57       POPC     C1       CTL2    -0.800000E-01   12.0110           0
      7565 MEMB     57       POPC     HA       HAL2     0.900000E-01   1.00800           0
      7566 MEMB     57       POPC     HB       HAL2     0.900000E-01   1.00800           0
      7567 MEMB     57       POPC     C2       CTL1     0.170000       12.0110           0
      7568 MEMB     57       POPC     HS       HAL1     0.900000E-01   1.00800           0
      7569 MEMB     57       POPC     O21      OSL     -0.490000       15.9994           0
      7570 MEMB     57       POPC     C21      CL       0.900000       12.0110           0
      7571 MEMB     57       POPC     O22      OBL     -0.630000       15.9994           0
      7572 MEMB     57       POPC     C22      CTL2    -0.220000       12.0110           0
      7573 MEMB     57       POPC     H2R      HAL2     0.900000E-01   1.00800           0
      7574 MEMB     57       POPC     H2S      HAL2     0.900000E-01   1.00800           0
      7575 MEMB     57       POPC     C3       CTL2     0.800000E-01   12.0110           0
      7576 MEMB     57       POPC     HX       HAL2     0.900000E-01   1.00800           0
      7577 MEMB     57       POPC     HY       HAL2     0.900000E-01   1.00800           0
      7578 MEMB     57       POPC     O31      OSL     -0.490000       15.9994           0
      7579 MEMB     57       POPC     C31      CL       0.900000       12.0110           0
      7580 MEMB     57       POPC     O32      OBL     -0.630000       15.9994           0
      7581 MEMB     57       POPC     C32      CTL2    -0.220000       12.0110           0
      7582 MEMB     57       POPC     H2X      HAL2     0.900000E-01   1.00800           0
      7583 MEMB     57       POPC     H2Y      HAL2     0.900000E-01   1.00800           0
      7584 MEMB     57       POPC     C23      CTL2    -0.180000       12.0110           0
      7585 MEMB     57       POPC     H3R      HAL2     0.900000E-01   1.00800           0
      7586 MEMB     57       POPC     H3S      HAL2     0.900000E-01   1.00800           0
      7587 MEMB     57       POPC     C24      CTL2    -0.180000       12.0110           0
      7588 MEMB     57       POPC     H4R      HAL2     0.900000E-01   1.00800           0
      7589 MEMB     57       POPC     H4S      HAL2     0.900000E-01   1.00800           0
      7590 MEMB     57       POPC     C25      CTL2    -0.180000       12.0110           0
      7591 MEMB     57       POPC     H5R      HAL2     0.900000E-01   1.00800           0
      7592 MEMB     57       POPC     H5S      HAL2     0.900000E-01   1.00800           0
      7593 MEMB     57       POPC     C26      CTL2    -0.180000       12.0110           0
      7594 MEMB     57       POPC     H6R      HAL2     0.900000E-01   1.00800           0
      7595 MEMB     57       POPC     H6S      HAL2     0.900000E-01   1.00800           0
      7596 MEMB     57       POPC     C27      CTL2    -0.180000       12.0110           0
      7597 MEMB     57       POPC     H7R      HAL2     0.900000E-01   1.00800           0
      7598 MEMB     57       POPC     H7S      HAL2     0.900000E-01   1.00800           0
      7599 MEMB     57       POPC     C28      CTL2    -0.180000       12.0110           0
      7600 MEMB     57       POPC     H8R      HAL2     0.900000E-01   1.00800           0
      7601 MEMB     57       POPC     H8S      HAL2     0.900000E-01   1.00800           0
      7602 MEMB     57       POPC     C29      CEL1    -0.150000       12.0110           0
      7603 MEMB     57       POPC     H91      HEL1     0.150000       1.00800           0
      7604 MEMB     57       POPC     C210     CEL1    -0.150000       12.0110           0
      7605 MEMB     57       POPC     H101     HEL1     0.150000       1.00800           0
      7606 MEMB     57       POPC     C211     CTL2    -0.180000       12.0110           0
      7607 MEMB     57       POPC     H11R     HAL2     0.900000E-01   1.00800           0
      7608 MEMB     57       POPC     H11S     HAL2     0.900000E-01   1.00800           0
      7609 MEMB     57       POPC     C212     CTL2    -0.180000       12.0110           0
      7610 MEMB     57       POPC     H12R     HAL2     0.900000E-01   1.00800           0
      7611 MEMB     57       POPC     H12S     HAL2     0.900000E-01   1.00800           0
      7612 MEMB     57       POPC     C213     CTL2    -0.180000       12.0110           0
      7613 MEMB     57       POPC     H13R     HAL2     0.900000E-01   1.00800           0
      7614 MEMB     57       POPC     H13S     HAL2     0.900000E-01   1.00800           0
      7615 MEMB     57       POPC     C214     CTL2    -0.180000       12.0110           0
      7616 MEMB     57       POPC     H14R     HAL2     0.900000E-01   1.00800           0
      7617 MEMB     57       POPC     H14S     HAL2     0.900000E-01   1.00800           0
      7618 MEMB     57       POPC     C215     CTL2    -0.180000       12.0110           0
      7619 MEMB     57       POPC     H15R     HAL2     0.900000E-01   1.00800           0
      7620 MEMB     57       POPC     H15S     HAL2     0.900000E-01   1.00800           0
      7621 MEMB     57       POPC     C216     CTL2    -0.180000       12.0110           0
      7622 MEMB     57       POPC     H16R     HAL2     0.900000E-01   1.00800           0
      7623 MEMB     57       POPC     H16S     HAL2     0.900000E-01   1.00800           0
      7624 MEMB     57       POPC     C217     CTL2    -0.180000       12.0110           0
      7625 MEMB     57       POPC     H17R     HAL2     0.900000E-01   1.00800           0
      7626 MEMB     57       POPC     H17S     HAL2     0.900000E-01   1.00800           0
      7627 MEMB     57       POPC     C218     CTL3    -0.270000       12.0110           0
      7628 MEMB     57       POPC     H18R     HAL3     0.900000E-01   1.00800           0
      7629 MEMB     57       POPC     H18S     HAL3     0.900000E-01   1.00800           0
      7630 MEMB     57       POPC     H18T     HAL3     0.900000E-01   1.00800           0
      7631 MEMB     57       POPC     C33      CTL2    -0.180000       12.0110           0
      7632 MEMB     57       POPC     H3X      HAL2     0.900000E-01   1.00800           0
      7633 MEMB     57       POPC     H3Y      HAL2     0.900000E-01   1.00800           0
      7634 MEMB     57       POPC     C34      CTL2    -0.180000       12.0110           0
      7635 MEMB     57       POPC     H4X      HAL2     0.900000E-01   1.00800           0
      7636 MEMB     57       POPC     H4Y      HAL2     0.900000E-01   1.00800           0
      7637 MEMB     57       POPC     C35      CTL2    -0.180000       12.0110           0
      7638 MEMB     57       POPC     H5X      HAL2     0.900000E-01   1.00800           0
      7639 MEMB     57       POPC     H5Y      HAL2     0.900000E-01   1.00800           0
      7640 MEMB     57       POPC     C36      CTL2    -0.180000       12.0110           0
      7641 MEMB     57       POPC     H6X      HAL2     0.900000E-01   1.00800           0
      7642 MEMB     57       POPC     H6Y      HAL2     0.900000E-01   1.00800           0
      7643 MEMB     57       POPC     C37      CTL2    -0.180000       12.0110           0
      7644 MEMB     57       POPC     H7X      HAL2     0.900000E-01   1.00800           0
      7645 MEMB     57       POPC     H7Y      HAL2     0.900000E-01   1.00800           0
      7646 MEMB     57       POPC     C38      CTL2    -0.180000       12.0110           0
      7647 MEMB     57       POPC     H8X      HAL2     0.900000E-01   1.00800           0
      7648 MEMB     57       POPC     H8Y      HAL2     0.900000E-01   1.00800           0
      7649 MEMB     57       POPC     C39      CTL2    -0.180000       12.0110           0
      7650 MEMB     57       POPC     H9X      HAL2     0.900000E-01   1.00800           0
      7651 MEMB     57       POPC     H9Y      HAL2     0.900000E-01   1.00800           0
      7652 MEMB     57       POPC     C310     CTL2    -0.180000       12.0110           0
      7653 MEMB     57       POPC     H10X     HAL2     0.900000E-01   1.00800           0
      7654 MEMB     57       POPC     H10Y     HAL2     0.900000E-01   1.00800           0
      7655 MEMB     57       POPC     C311     CTL2    -0.180000       12.0110           0
      7656 MEMB     57       POPC     H11X     HAL2     0.900000E-01   1.00800           0
      7657 MEMB     57       POPC     H11Y     HAL2     0.900000E-01   1.00800           0
      7658 MEMB     57       POPC     C312     CTL2    -0.180000       12.0110           0
      7659 MEMB     57       POPC     H12X     HAL2     0.900000E-01   1.00800           0
      7660 MEMB     57       POPC     H12Y     HAL2     0.900000E-01   1.00800           0
      7661 MEMB     57       POPC     C313     CTL2    -0.180000       12.0110           0
      7662 MEMB     57       POPC     H13X     HAL2     0.900000E-01   1.00800           0
      7663 MEMB     57       POPC     H13Y     HAL2     0.900000E-01   1.00800           0
      7664 MEMB     57       POPC     C314     CTL2    -0.180000       12.0110           0
      7665 MEMB     57       POPC     H14X     HAL2     0.900000E-01   1.00800           0
      7666 MEMB     57       POPC     H14Y     HAL2     0.900000E-01   1.00800           0
      7667 MEMB     57       POPC     C315     CTL2    -0.180000       12.0110           0
      7668 MEMB     57       POPC     H15X     HAL2     0.900000E-01   1.00800           0
      7669 MEMB     57       POPC     H15Y     HAL2     0.900000E-01   1.00800           0
      7670 MEMB     57       POPC     C316     CTL3    -0.270000       12.0110           0
      7671 MEMB     57       POPC     H16X     HAL3     0.900000E-01   1.00800           0
      7672 MEMB     57       POPC     H16Y     HAL3     0.900000E-01   1.00800           0
      7673 MEMB     57       POPC     H16Z     HAL3     0.900000E-01   1.00800           0
      7674 MEMB     58       POPS     N        NH3L    -0.300000       14.0070           0
      7675 MEMB     58       POPS     HN1      HCL      0.330000       1.00800           0
      7676 MEMB     58       POPS     HN2      HCL      0.330000       1.00800           0
      7677 MEMB     58       POPS     HN3      HCL      0.330000       1.00800           0
      7678 MEMB     58       POPS     C12      CTL1     0.210000       12.0110           0
      7679 MEMB     58       POPS     H12A     HBL      0.100000       1.00800           0
      7680 MEMB     58       POPS     C13      CCL      0.340000       12.0110           0
      7681 MEMB     58       POPS     O13A     OCL     -0.670000       15.9994           0
      7682 MEMB     58       POPS     O13B     OCL     -0.670000       15.9994           0
      7683 MEMB     58       POPS     C11      CTL2    -0.800000E-01   12.0110           0
      7684 MEMB     58       POPS     H11A     HAL2     0.900000E-01   1.00800           0
      7685 MEMB     58       POPS     H11B     HAL2     0.900000E-01   1.00800           0
      7686 MEMB     58       POPS     P        PL       1.500000       30.9740           0
      7687 MEMB     58       POPS     O13      O2L     -0.780000       15.9994           0
      7688 MEMB     58       POPS     O14      O2L     -0.780000       15.9994           0
      7689 MEMB     58       POPS     O12      OSLP    -0.570000       15.9994           0
      7690 MEMB     58       POPS     O11      OSLP    -0.570000       15.9994           0
      7691 MEMB     58       POPS     C1       CTL2    -0.800000E-01   12.0110           0
      7692 MEMB     58       POPS     HA       HAL2     0.900000E-01   1.00800           0
      7693 MEMB     58       POPS     HB       HAL2     0.900000E-01   1.00800           0
      7694 MEMB     58       POPS     C2       CTL1     0.170000       12.0110           0
      7695 MEMB     58       POPS     HS       HAL1     0.900000E-01   1.00800           0
      7696 MEMB     58       POPS     O21      OSL     -0.490000       15.9994           0
      7697 MEMB     58       POPS     C21      CL       0.900000       12.0110           0
      7698 MEMB     58       POPS     O22      OBL     -0.630000       15.9994           0
      7699 MEMB     58       POPS     C22      CTL2    -0.220000       12.0110           0
      7700 MEMB     58       POPS     H2R      HAL2     0.900000E-01   1.00800           0
      7701 MEMB     58       POPS     H2S      HAL2     0.900000E-01   1.00800           0
      7702 MEMB     58       POPS     C3       CTL2     0.800000E-01   12.0110           0
      7703 MEMB     58       POPS     HX       HAL2     0.900000E-01   1.00800           0
      7704 MEMB     58       POPS     HY       HAL2     0.900000E-01   1.00800           0
      7705 MEMB     58       POPS     O31      OSL     -0.490000       15.9994           0
      7706 MEMB     58       POPS     C31      CL       0.900000       12.0110           0
      7707 MEMB     58       POPS     O32      OBL     -0.630000       15.9994           0
      7708 MEMB     58       POPS     C32      CTL2    -0.220000       12.0110           0
      7709 MEMB     58       POPS     H2X      HAL2     0.900000E-01   1.00800           0
      7710 MEMB     58       POPS     H2Y      HAL2     0.900000E-01   1.00800           0
      7711 MEMB     58       POPS     C23      CTL2    -0.180000       12.0110           0
      7712 MEMB     58       POPS     H3R      HAL2     0.900000E-01   1.00800           0
      7713 MEMB     58       POPS     H3S      HAL2     0.900000E-01   1.00800           0
      7714 MEMB     58       POPS     C24      CTL2    -0.180000       12.0110           0
      7715 MEMB     58       POPS     H4R      HAL2     0.900000E-01   1.00800           0
      7716 MEMB     58       POPS     H4S      HAL2     0.900000E-01   1.00800           0
      7717 MEMB     58       POPS     C25      CTL2    -0.180000       12.0110           0
      7718 MEMB     58       POPS     H5R      HAL2     0.900000E-01   1.00800           0
      7719 MEMB     58       POPS     H5S      HAL2     0.900000E-01   1.00800           0
      7720 MEMB     58       POPS     C26      CTL2    -0.180000       12.0110           0
      7721 MEMB     58       POPS     H6R      HAL2     0.900000E-01   1.00800           0
      7722 MEMB     58       POPS     H6S      HAL2     0.900000E-01   1.00800           0
      7723 MEMB     58       POPS     C27      CTL2    -0.180000       12.0110           0
      7724 MEMB     58       POPS     H7R      HAL2     0.900000E-01   1.00800           0
      7725 MEMB     58       POPS     H7S      HAL2     0.900000E-01   1.00800           0
      7726 MEMB     58       POPS     C28      CTL2    -0.180000       12.0110           0
      7727 MEMB     58       POPS     H8R      HAL2     0.900000E-01   1.00800           0
      7728 MEMB     58       POPS     H8S      HAL2     0.900000E-01   1.00800           0
      7729 MEMB     58       POPS     C29      CEL1    -0.150000       12.0110           0
      7730 MEMB     58       POPS     H91      HEL1     0.150000       1.00800           0
      7731 MEMB     58       POPS     C210     CEL1    -0.150000       12.0110           0
      7732 MEMB     58       POPS     H101     HEL1     0.150000       1.00800           0
      7733 MEMB     58       POPS     C211     CTL2    -0.180000       12.0110           0
      7734 MEMB     58       POPS     H11R     HAL2     0.900000E-01   1.00800           0
      7735 MEMB     58       POPS     H11S     HAL2     0.900000E-01   1.00800           0
      7736 MEMB     58       POPS     C212     CTL2    -0.180000       12.0110           0
      7737 MEMB     58       POPS     H12R     HAL2     0.900000E-01   1.00800           0
      7738 MEMB     58       POPS     H12S     HAL2     0.900000E-01   1.00800           0
      7739 MEMB     58       POPS     C213     CTL2    -0.180000       12.0110           0
      7740 MEMB     58       POPS     H13R     HAL2     0.900000E-01   1.00800           0
      7741 MEMB     58       POPS     H13S     HAL2     0.900000E-01   1.00800           0
      7742 MEMB     58       POPS     C214     CTL2    -0.180000       12.0110           0
      7743 MEMB     58       POPS     H14R     HAL2     0.900000E-01   1.00800           0
      7744 MEMB     58       POPS     H14S     HAL2     0.900000E-01   1.00800           0
      7745 MEMB     58       POPS     C215     CTL2    -0.180000       12.0110           0
      7746 MEMB     58       POPS     H15R     HAL2     0.900000E-01   1.00800           0
      7747 MEMB     58       POPS     H15S     HAL2     0.900000E-01   1.00800           0
      7748 MEMB     58       POPS     C216     CTL2    -0.180000       12.0110           0
      7749 MEMB     58       POPS     H16R     HAL2     0.900000E-01   1.00800           0
      7750 MEMB     58       POPS     H16S     HAL2     0.900000E-01   1.00800           0
      7751 MEMB     58       POPS     C217     CTL2    -0.180000       12.0110           0
      7752 MEMB     58       POPS     H17R     HAL2     0.900000E-01   1.00800           0
      7753 MEMB     58       POPS     H17S     HAL2     0.900000E-01   1.00800           0
      7754 MEMB     58       POPS     C218     CTL3    -0.270000       12.0110           0
      7755 MEMB     58       POPS     H18R     HAL3     0.900000E-01   1.00800           0
      7756 MEMB     58       POPS     H18S     HAL3     0.900000E-01   1.00800           0
      7757 MEMB     58       POPS     H18T     HAL3     0.900000E-01   1.00800           0
      7758 MEMB     58       POPS     C33      CTL2    -0.180000       12.0110           0
      7759 MEMB     58       POPS     H3X      HAL2     0.900000E-01   1.00800           0
      7760 MEMB     58       POPS     H3Y      HAL2     0.900000E-01   1.00800           0
      7761 MEMB     58       POPS     C34      CTL2    -0.180000       12.0110           0
      7762 MEMB     58       POPS     H4X      HAL2     0.900000E-01   1.00800           0
      7763 MEMB     58       POPS     H4Y      HAL2     0.900000E-01   1.00800           0
      7764 MEMB     58       POPS     C35      CTL2    -0.180000       12.0110           0
      7765 MEMB     58       POPS     H5X      HAL2     0.900000E-01   1.00800           0
      7766 MEMB     58       POPS     H5Y      HAL2     0.900000E-01   1.00800           0
      7767 MEMB     58       POPS     C36      CTL2    -0.180000       12.0110           0
      7768 MEMB     58       POPS     H6X      HAL2     0.900000E-01   1.00800           0
      7769 MEMB     58       POPS     H6Y      HAL2     0.900000E-01   1.00800           0
      7770 MEMB     58       POPS     C37      CTL2    -0.180000       12.0110           0
      7771 MEMB     58       POPS     H7X      HAL2     0.900000E-01   1.00800           0
      7772 MEMB     58       POPS     H7Y      HAL2     0.900000E-01   1.00800           0
      7773 MEMB     58       POPS     C38      CTL2    -0.180000       12.0110           0
      7774 MEMB     58       POPS     H8X      HAL2     0.900000E-01   1.00800           0
      7775 MEMB     58       POPS     H8Y      HAL2     0.900000E-01   1.00800           0
      7776 MEMB     58       POPS     C39      CTL2    -0.180000       12.0110           0
      7777 MEMB     58       POPS     H9X      HAL2     0.900000E-01   1.00800           0
      7778 MEMB     58       POPS     H9Y      HAL2     0.900000E-01   1.00800           0
      7779 MEMB     58       POPS     C310     CTL2    -0.180000       12.0110           0
      7780 MEMB     58       POPS     H10X     HAL2     0.900000E-01   1.00800           0
      7781 MEMB     58       POPS     H10Y     HAL2     0.900000E-01   1.00800           0
      7782 MEMB     58       POPS     C311     CTL2    -0.180000       12.0110           0
      7783 MEMB     58       POPS     H11X     HAL2     0.900000E-01   1.00800           0
      7784 MEMB     58       POPS     H11Y     HAL2     0.900000E-01   1.00800           0
      7785 MEMB     58       POPS     C312     CTL2    -0.180000       12.0110           0
      7786 MEMB     58       POPS     H12X     HAL2     0.900000E-01   1.00800           0
      7787 MEMB     58       POPS     H12Y     HAL2     0.900000E-01   1.00800           0
      7788 MEMB     58       POPS     C313     CTL2    -0.180000       12.0110           0
      7789 MEMB     58       POPS     H13X     HAL2     0.900000E-01   1.00800           0
      7790 MEMB     58       POPS     H13Y     HAL2     0.900000E-01   1.00800           0
      7791 MEMB     58       POPS     C314     CTL2    -0.180000       12.0110           0
      7792 MEMB     58       POPS     H14X     HAL2     0.900000E-01   1.00800           0
      7793 MEMB     58       POPS     H14Y     HAL2     0.900000E-01   1.00800           0
      7794 MEMB     58       POPS     C315     CTL2    -0.180000       12.0110           0
      7795 MEMB     58       POPS     H15X     HAL2     0.900000E-01   1.00800           0
      7796 MEMB     58       POPS     H15Y     HAL2     0.900000E-01   1.00800           0
      7797 MEMB     58       POPS     C316     CTL3    -0.270000       12.0110           0
      7798 MEMB     58       POPS     H16X     HAL3     0.900000E-01   1.00800           0
      7799 MEMB     58       POPS     H16Y     HAL3     0.900000E-01   1.00800           0
      7800 MEMB     58       POPS     H16Z     HAL3     0.900000E-01   1.00800           0
      7801 MEMB     59       POPC     N        NTL     -0.600000       14.0070           0
      7802 MEMB     59       POPC     C12      CTL2    -0.100000       12.0110           0
      7803 MEMB     59       POPC     H12A     HL       0.250000       1.00800           0
      7804 MEMB     59       POPC     H12B     HL       0.250000       1.00800           0
      7805 MEMB     59       POPC     C13      CTL5    -0.350000       12.0110           0
      7806 MEMB     59       POPC     H13A     HL       0.250000       1.00800           0
      7807 MEMB     59       POPC     H13B     HL       0.250000       1.00800           0
      7808 MEMB     59       POPC     H13C     HL       0.250000       1.00800           0
      7809 MEMB     59       POPC     C14      CTL5    -0.350000       12.0110           0
      7810 MEMB     59       POPC     H14A     HL       0.250000       1.00800           0
      7811 MEMB     59       POPC     H14B     HL       0.250000       1.00800           0
      7812 MEMB     59       POPC     H14C     HL       0.250000       1.00800           0
      7813 MEMB     59       POPC     C15      CTL5    -0.350000       12.0110           0
      7814 MEMB     59       POPC     H15A     HL       0.250000       1.00800           0
      7815 MEMB     59       POPC     H15B     HL       0.250000       1.00800           0
      7816 MEMB     59       POPC     H15C     HL       0.250000       1.00800           0
      7817 MEMB     59       POPC     C11      CTL2    -0.800000E-01   12.0110           0
      7818 MEMB     59       POPC     H11A     HAL2     0.900000E-01   1.00800           0
      7819 MEMB     59       POPC     H11B     HAL2     0.900000E-01   1.00800           0
      7820 MEMB     59       POPC     P        PL       1.500000       30.9740           0
      7821 MEMB     59       POPC     O13      O2L     -0.780000       15.9994           0
      7822 MEMB     59       POPC     O14      O2L     -0.780000       15.9994           0
      7823 MEMB     59       POPC     O12      OSLP    -0.570000       15.9994           0
      7824 MEMB     59       POPC     O11      OSLP    -0.570000       15.9994           0
      7825 MEMB     59       POPC     C1       CTL2    -0.800000E-01   12.0110           0
      7826 MEMB     59       POPC     HA       HAL2     0.900000E-01   1.00800           0
      7827 MEMB     59       POPC     HB       HAL2     0.900000E-01   1.00800           0
      7828 MEMB     59       POPC     C2       CTL1     0.170000       12.0110           0
      7829 MEMB     59       POPC     HS       HAL1     0.900000E-01   1.00800           0
      7830 MEMB     59       POPC     O21      OSL     -0.490000       15.9994           0
      7831 MEMB     59       POPC     C21      CL       0.900000       12.0110           0
      7832 MEMB     59       POPC     O22      OBL     -0.630000       15.9994           0
      7833 MEMB     59       POPC     C22      CTL2    -0.220000       12.0110           0
      7834 MEMB     59       POPC     H2R      HAL2     0.900000E-01   1.00800           0
      7835 MEMB     59       POPC     H2S      HAL2     0.900000E-01   1.00800           0
      7836 MEMB     59       POPC     C3       CTL2     0.800000E-01   12.0110           0
      7837 MEMB     59       POPC     HX       HAL2     0.900000E-01   1.00800           0
      7838 MEMB     59       POPC     HY       HAL2     0.900000E-01   1.00800           0
      7839 MEMB     59       POPC     O31      OSL     -0.490000       15.9994           0
      7840 MEMB     59       POPC     C31      CL       0.900000       12.0110           0
      7841 MEMB     59       POPC     O32      OBL     -0.630000       15.9994           0
      7842 MEMB     59       POPC     C32      CTL2    -0.220000       12.0110           0
      7843 MEMB     59       POPC     H2X      HAL2     0.900000E-01   1.00800           0
      7844 MEMB     59       POPC     H2Y      HAL2     0.900000E-01   1.00800           0
      7845 MEMB     59       POPC     C23      CTL2    -0.180000       12.0110           0
      7846 MEMB     59       POPC     H3R      HAL2     0.900000E-01   1.00800           0
      7847 MEMB     59       POPC     H3S      HAL2     0.900000E-01   1.00800           0
      7848 MEMB     59       POPC     C24      CTL2    -0.180000       12.0110           0
      7849 MEMB     59       POPC     H4R      HAL2     0.900000E-01   1.00800           0
      7850 MEMB     59       POPC     H4S      HAL2     0.900000E-01   1.00800           0
      7851 MEMB     59       POPC     C25      CTL2    -0.180000       12.0110           0
      7852 MEMB     59       POPC     H5R      HAL2     0.900000E-01   1.00800           0
      7853 MEMB     59       POPC     H5S      HAL2     0.900000E-01   1.00800           0
      7854 MEMB     59       POPC     C26      CTL2    -0.180000       12.0110           0
      7855 MEMB     59       POPC     H6R      HAL2     0.900000E-01   1.00800           0
      7856 MEMB     59       POPC     H6S      HAL2     0.900000E-01   1.00800           0
      7857 MEMB     59       POPC     C27      CTL2    -0.180000       12.0110           0
      7858 MEMB     59       POPC     H7R      HAL2     0.900000E-01   1.00800           0
      7859 MEMB     59       POPC     H7S      HAL2     0.900000E-01   1.00800           0
      7860 MEMB     59       POPC     C28      CTL2    -0.180000       12.0110           0
      7861 MEMB     59       POPC     H8R      HAL2     0.900000E-01   1.00800           0
      7862 MEMB     59       POPC     H8S      HAL2     0.900000E-01   1.00800           0
      7863 MEMB     59       POPC     C29      CEL1    -0.150000       12.0110           0
      7864 MEMB     59       POPC     H91      HEL1     0.150000       1.00800           0
      7865 MEMB     59       POPC     C210     CEL1    -0.150000       12.0110           0
      7866 MEMB     59       POPC     H101     HEL1     0.150000       1.00800           0
      7867 MEMB     59       POPC     C211     CTL2    -0.180000       12.0110           0
      7868 MEMB     59       POPC     H11R     HAL2     0.900000E-01   1.00800           0
      7869 MEMB     59       POPC     H11S     HAL2     0.900000E-01   1.00800           0
      7870 MEMB     59       POPC     C212     CTL2    -0.180000       12.0110           0
      7871 MEMB     59       POPC     H12R     HAL2     0.900000E-01   1.00800           0
      7872 MEMB     59       POPC     H12S     HAL2     0.900000E-01   1.00800           0
      7873 MEMB     59       POPC     C213     CTL2    -0.180000       12.0110           0
      7874 MEMB     59       POPC     H13R     HAL2     0.900000E-01   1.00800           0
      7875 MEMB     59       POPC     H13S     HAL2     0.900000E-01   1.00800           0
      7876 MEMB     59       POPC     C214     CTL2    -0.180000       12.0110           0
      7877 MEMB     59       POPC     H14R     HAL2     0.900000E-01   1.00800           0
      7878 MEMB     59       POPC     H14S     HAL2     0.900000E-01   1.00800           0
      7879 MEMB     59       POPC     C215     CTL2    -0.180000       12.0110           0
      7880 MEMB     59       POPC     H15R     HAL2     0.900000E-01   1.00800           0
      7881 MEMB     59       POPC     H15S     HAL2     0.900000E-01   1.00800           0
      7882 MEMB     59       POPC     C216     CTL2    -0.180000       12.0110           0
      7883 MEMB     59       POPC     H16R     HAL2     0.900000E-01   1.00800           0
      7884 MEMB     59       POPC     H16S     HAL2     0.900000E-01   1.00800           0
      7885 MEMB     59       POPC     C217     CTL2    -0.180000       12.0110           0
      7886 MEMB     59       POPC     H17R     HAL2     0.900000E-01   1.00800           0
      7887 MEMB     59       POPC     H17S     HAL2     0.900000E-01   1.00800           0
      7888 MEMB     59       POPC     C218     CTL3    -0.270000       12.0110           0
      7889 MEMB     59       POPC     H18R     HAL3     0.900000E-01   1.00800           0
      7890 MEMB     59       POPC     H18S     HAL3     0.900000E-01   1.00800           0
      7891 MEMB     59       POPC     H18T     HAL3     0.900000E-01   1.00800           0
      7892 MEMB     59       POPC     C33      CTL2    -0.180000       12.0110           0
      7893 MEMB     59       POPC     H3X      HAL2     0.900000E-01   1.00800           0
      7894 MEMB     59       POPC     H3Y      HAL2     0.900000E-01   1.00800           0
      7895 MEMB     59       POPC     C34      CTL2    -0.180000       12.0110           0
      7896 MEMB     59       POPC     H4X      HAL2     0.900000E-01   1.00800           0
      7897 MEMB     59       POPC     H4Y      HAL2     0.900000E-01   1.00800           0
      7898 MEMB     59       POPC     C35      CTL2    -0.180000       12.0110           0
      7899 MEMB     59       POPC     H5X      HAL2     0.900000E-01   1.00800           0
      7900 MEMB     59       POPC     H5Y      HAL2     0.900000E-01   1.00800           0
      7901 MEMB     59       POPC     C36      CTL2    -0.180000       12.0110           0
      7902 MEMB     59       POPC     H6X      HAL2     0.900000E-01   1.00800           0
      7903 MEMB     59       POPC     H6Y      HAL2     0.900000E-01   1.00800           0
      7904 MEMB     59       POPC     C37      CTL2    -0.180000       12.0110           0
      7905 MEMB     59       POPC     H7X      HAL2     0.900000E-01   1.00800           0
      7906 MEMB     59       POPC     H7Y      HAL2     0.900000E-01   1.00800           0
      7907 MEMB     59       POPC     C38      CTL2    -0.180000       12.0110           0
      7908 MEMB     59       POPC     H8X      HAL2     0.900000E-01   1.00800           0
      7909 MEMB     59       POPC     H8Y      HAL2     0.900000E-01   1.00800           0
      7910 MEMB     59       POPC     C39      CTL2    -0.180000       12.0110           0
      7911 MEMB     59       POPC     H9X      HAL2     0.900000E-01   1.00800           0
      7912 MEMB     59       POPC     H9Y      HAL2     0.900000E-01   1.00800           0
      7913 MEMB     59       POPC     C310     CTL2    -0.180000       12.0110           0
      7914 MEMB     59       POPC     H10X     HAL2     0.900000E-01   1.00800           0
      7915 MEMB     59       POPC     H10Y     HAL2     0.900000E-01   1.00800           0
      7916 MEMB     59       POPC     C311     CTL2    -0.180000       12.0110           0
      7917 MEMB     59       POPC     H11X     HAL2     0.900000E-01   1.00800           0
      7918 MEMB     59       POPC     H11Y     HAL2     0.900000E-01   1.00800           0
      7919 MEMB     59       POPC     C312     CTL2    -0.180000       12.0110           0
      7920 MEMB     59       POPC     H12X     HAL2     0.900000E-01   1.00800           0
      7921 MEMB     59       POPC     H12Y     HAL2     0.900000E-01   1.00800           0
      7922 MEMB     59       POPC     C313     CTL2    -0.180000       12.0110           0
      7923 MEMB     59       POPC     H13X     HAL2     0.900000E-01   1.00800           0
      7924 MEMB     59       POPC     H13Y     HAL2     0.900000E-01   1.00800           0
      7925 MEMB     59       POPC     C314     CTL2    -0.180000       12.0110           0
      7926 MEMB     59       POPC     H14X     HAL2     0.900000E-01   1.00800           0
      7927 MEMB     59       POPC     H14Y     HAL2     0.900000E-01   1.00800           0
      7928 MEMB     59       POPC     C315     CTL2    -0.180000       12.0110           0
      7929 MEMB     59       POPC     H15X     HAL2     0.900000E-01   1.00800           0
      7930 MEMB     59       POPC     H15Y     HAL2     0.900000E-01   1.00800           0
      7931 MEMB     59       POPC     C316     CTL3    -0.270000       12.0110           0
      7932 MEMB     59       POPC     H16X     HAL3     0.900000E-01   1.00800           0
      7933 MEMB     59       POPC     H16Y     HAL3     0.900000E-01   1.00800           0
      7934 MEMB     59       POPC     H16Z     HAL3     0.900000E-01   1.00800           0
      7935 MEMB     60       POPC     N        NTL     -0.600000       14.0070           0
      7936 MEMB     60       POPC     C12      CTL2    -0.100000       12.0110           0
      7937 MEMB     60       POPC     H12A     HL       0.250000       1.00800           0
      7938 MEMB     60       POPC     H12B     HL       0.250000       1.00800           0
      7939 MEMB     60       POPC     C13      CTL5    -0.350000       12.0110           0
      7940 MEMB     60       POPC     H13A     HL       0.250000       1.00800           0
      7941 MEMB     60       POPC     H13B     HL       0.250000       1.00800           0
      7942 MEMB     60       POPC     H13C     HL       0.250000       1.00800           0
      7943 MEMB     60       POPC     C14      CTL5    -0.350000       12.0110           0
      7944 MEMB     60       POPC     H14A     HL       0.250000       1.00800           0
      7945 MEMB     60       POPC     H14B     HL       0.250000       1.00800           0
      7946 MEMB     60       POPC     H14C     HL       0.250000       1.00800           0
      7947 MEMB     60       POPC     C15      CTL5    -0.350000       12.0110           0
      7948 MEMB     60       POPC     H15A     HL       0.250000       1.00800           0
      7949 MEMB     60       POPC     H15B     HL       0.250000       1.00800           0
      7950 MEMB     60       POPC     H15C     HL       0.250000       1.00800           0
      7951 MEMB     60       POPC     C11      CTL2    -0.800000E-01   12.0110           0
      7952 MEMB     60       POPC     H11A     HAL2     0.900000E-01   1.00800           0
      7953 MEMB     60       POPC     H11B     HAL2     0.900000E-01   1.00800           0
      7954 MEMB     60       POPC     P        PL       1.500000       30.9740           0
      7955 MEMB     60       POPC     O13      O2L     -0.780000       15.9994           0
      7956 MEMB     60       POPC     O14      O2L     -0.780000       15.9994           0
      7957 MEMB     60       POPC     O12      OSLP    -0.570000       15.9994           0
      7958 MEMB     60       POPC     O11      OSLP    -0.570000       15.9994           0
      7959 MEMB     60       POPC     C1       CTL2    -0.800000E-01   12.0110           0
      7960 MEMB     60       POPC     HA       HAL2     0.900000E-01   1.00800           0
      7961 MEMB     60       POPC     HB       HAL2     0.900000E-01   1.00800           0
      7962 MEMB     60       POPC     C2       CTL1     0.170000       12.0110           0
      7963 MEMB     60       POPC     HS       HAL1     0.900000E-01   1.00800           0
      7964 MEMB     60       POPC     O21      OSL     -0.490000       15.9994           0
      7965 MEMB     60       POPC     C21      CL       0.900000       12.0110           0
      7966 MEMB     60       POPC     O22      OBL     -0.630000       15.9994           0
      7967 MEMB     60       POPC     C22      CTL2    -0.220000       12.0110           0
      7968 MEMB     60       POPC     H2R      HAL2     0.900000E-01   1.00800           0
      7969 MEMB     60       POPC     H2S      HAL2     0.900000E-01   1.00800           0
      7970 MEMB     60       POPC     C3       CTL2     0.800000E-01   12.0110           0
      7971 MEMB     60       POPC     HX       HAL2     0.900000E-01   1.00800           0
      7972 MEMB     60       POPC     HY       HAL2     0.900000E-01   1.00800           0
      7973 MEMB     60       POPC     O31      OSL     -0.490000       15.9994           0
      7974 MEMB     60       POPC     C31      CL       0.900000       12.0110           0
      7975 MEMB     60       POPC     O32      OBL     -0.630000       15.9994           0
      7976 MEMB     60       POPC     C32      CTL2    -0.220000       12.0110           0
      7977 MEMB     60       POPC     H2X      HAL2     0.900000E-01   1.00800           0
      7978 MEMB     60       POPC     H2Y      HAL2     0.900000E-01   1.00800           0
      7979 MEMB     60       POPC     C23      CTL2    -0.180000       12.0110           0
      7980 MEMB     60       POPC     H3R      HAL2     0.900000E-01   1.00800           0
      7981 MEMB     60       POPC     H3S      HAL2     0.900000E-01   1.00800           0
      7982 MEMB     60       POPC     C24      CTL2    -0.180000       12.0110           0
      7983 MEMB     60       POPC     H4R      HAL2     0.900000E-01   1.00800           0
      7984 MEMB     60       POPC     H4S      HAL2     0.900000E-01   1.00800           0
      7985 MEMB     60       POPC     C25      CTL2    -0.180000       12.0110           0
      7986 MEMB     60       POPC     H5R      HAL2     0.900000E-01   1.00800           0
      7987 MEMB     60       POPC     H5S      HAL2     0.900000E-01   1.00800           0
      7988 MEMB     60       POPC     C26      CTL2    -0.180000       12.0110           0
      7989 MEMB     60       POPC     H6R      HAL2     0.900000E-01   1.00800           0
      7990 MEMB     60       POPC     H6S      HAL2     0.900000E-01   1.00800           0
      7991 MEMB     60       POPC     C27      CTL2    -0.180000       12.0110           0
      7992 MEMB     60       POPC     H7R      HAL2     0.900000E-01   1.00800           0
      7993 MEMB     60       POPC     H7S      HAL2     0.900000E-01   1.00800           0
      7994 MEMB     60       POPC     C28      CTL2    -0.180000       12.0110           0
      7995 MEMB     60       POPC     H8R      HAL2     0.900000E-01   1.00800           0
      7996 MEMB     60       POPC     H8S      HAL2     0.900000E-01   1.00800           0
      7997 MEMB     60       POPC     C29      CEL1    -0.150000       12.0110           0
      7998 MEMB     60       POPC     H91      HEL1     0.150000       1.00800           0
      7999 MEMB     60       POPC     C210     CEL1    -0.150000       12.0110           0
      8000 MEMB     60       POPC     H101     HEL1     0.150000       1.00800           0
      8001 MEMB     60       POPC     C211     CTL2    -0.180000       12.0110           0
      8002 MEMB     60       POPC     H11R     HAL2     0.900000E-01   1.00800           0
      8003 MEMB     60       POPC     H11S     HAL2     0.900000E-01   1.00800           0
      8004 MEMB     60       POPC     C212     CTL2    -0.180000       12.0110           0
      8005 MEMB     60       POPC     H12R     HAL2     0.900000E-01   1.00800           0
      8006 MEMB     60       POPC     H12S     HAL2     0.900000E-01   1.00800           0
      8007 MEMB     60       POPC     C213     CTL2    -0.180000       12.0110           0
      8008 MEMB     60       POPC     H13R     HAL2     0.900000E-01   1.00800           0
      8009 MEMB     60       POPC     H13S     HAL2     0.900000E-01   1.00800           0
      8010 MEMB     60       POPC     C214     CTL2    -0.180000       12.0110           0
      8011 MEMB     60       POPC     H14R     HAL2     0.900000E-01   1.00800           0
      8012 MEMB     60       POPC     H14S     HAL2     0.900000E-01   1.00800           0
      8013 MEMB     60       POPC     C215     CTL2    -0.180000       12.0110           0
      8014 MEMB     60       POPC     H15R     HAL2     0.900000E-01   1.00800           0
      8015 MEMB     60       POPC     H15S     HAL2     0.900000E-01   1.00800           0
      8016 MEMB     60       POPC     C216     CTL2    -0.180000       12.0110           0
      8017 MEMB     60       POPC     H16R     HAL2     0.900000E-01   1.00800           0
      8018 MEMB     60       POPC     H16S     HAL2     0.900000E-01   1.00800           0
      8019 MEMB     60       POPC     C217     CTL2    -0.180000       12.0110           0
      8020 MEMB     60       POPC     H17R     HAL2     0.900000E-01   1.00800           0
      8021 MEMB     60       POPC     H17S     HAL2     0.900000E-01   1.00800           0
      8022 MEMB     60       POPC     C218     CTL3    -0.270000       12.0110           0
      8023 MEMB     60       POPC     H18R     HAL3     0.900000E-01   1.00800           0
      8024 MEMB     60       POPC     H18S     HAL3     0.900000E-01   1.00800           0
      8025 MEMB     60       POPC     H18T     HAL3     0.900000E-01   1.00800           0
      8026 MEMB     60       POPC     C33      CTL2    -0.180000       12.0110           0
      8027 MEMB     60       POPC     H3X      HAL2     0.900000E-01   1.00800           0
      8028 MEMB     60       POPC     H3Y      HAL2     0.900000E-01   1.00800           0
      8029 MEMB     60       POPC     C34      CTL2    -0.180000       12.0110           0
      8030 MEMB     60       POPC     H4X      HAL2     0.900000E-01   1.00800           0
      8031 MEMB     60       POPC     H4Y      HAL2     0.900000E-01   1.00800           0
      8032 MEMB     60       POPC     C35      CTL2    -0.180000       12.0110           0
      8033 MEMB     60       POPC     H5X      HAL2     0.900000E-01   1.00800           0
      8034 MEMB     60       POPC     H5Y      HAL2     0.900000E-01   1.00800           0
      8035 MEMB     60       POPC     C36      CTL2    -0.180000       12.0110           0
      8036 MEMB     60       POPC     H6X      HAL2     0.900000E-01   1.00800           0
      8037 MEMB     60       POPC     H6Y      HAL2     0.900000E-01   1.00800           0
      8038 MEMB     60       POPC     C37      CTL2    -0.180000       12.0110           0
      8039 MEMB     60       POPC     H7X      HAL2     0.900000E-01   1.00800           0
      8040 MEMB     60       POPC     H7Y      HAL2     0.900000E-01   1.00800           0
      8041 MEMB     60       POPC     C38      CTL2    -0.180000       12.0110           0
      8042 MEMB     60       POPC     H8X      HAL2     0.900000E-01   1.00800           0
      8043 MEMB     60       POPC     H8Y      HAL2     0.900000E-01   1.00800           0
      8044 MEMB     60       POPC     C39      CTL2    -0.180000       12.0110           0
      8045 MEMB     60       POPC     H9X      HAL2     0.900000E-01   1.00800           0
      8046 MEMB     60       POPC     H9Y      HAL2     0.900000E-01   1.00800           0
      8047 MEMB     60       POPC     C310     CTL2    -0.180000       12.0110           0
      8048 MEMB     60       POPC     H10X     HAL2     0.900000E-01   1.00800           0
      8049 MEMB     60       POPC     H10Y     HAL2     0.900000E-01   1.00800           0
      8050 MEMB     60       POPC     C311     CTL2    -0.180000       12.0110           0
      8051 MEMB     60       POPC     H11X     HAL2     0.900000E-01   1.00800           0
      8052 MEMB     60       POPC     H11Y     HAL2     0.900000E-01   1.00800           0
      8053 MEMB     60       POPC     C312     CTL2    -0.180000       12.0110           0
      8054 MEMB     60       POPC     H12X     HAL2     0.900000E-01   1.00800           0
      8055 MEMB     60       POPC     H12Y     HAL2     0.900000E-01   1.00800           0
      8056 MEMB     60       POPC     C313     CTL2    -0.180000       12.0110           0
      8057 MEMB     60       POPC     H13X     HAL2     0.900000E-01   1.00800           0
      8058 MEMB     60       POPC     H13Y     HAL2     0.900000E-01   1.00800           0
      8059 MEMB     60       POPC     C314     CTL2    -0.180000       12.0110           0
      8060 MEMB     60       POPC     H14X     HAL2     0.900000E-01   1.00800           0
      8061 MEMB     60       POPC     H14Y     HAL2     0.900000E-01   1.00800           0
      8062 MEMB     60       POPC     C315     CTL2    -0.180000       12.0110           0
      8063 MEMB     60       POPC     H15X     HAL2     0.900000E-01   1.00800           0
      8064 MEMB     60       POPC     H15Y     HAL2     0.900000E-01   1.00800           0
      8065 MEMB     60       POPC     C316     CTL3    -0.270000       12.0110           0
      8066 MEMB     60       POPC     H16X     HAL3     0.900000E-01   1.00800           0
      8067 MEMB     60       POPC     H16Y     HAL3     0.900000E-01   1.00800           0
      8068 MEMB     60       POPC     H16Z     HAL3     0.900000E-01   1.00800           0
      8069 MEMB     61       POPC     N        NTL     -0.600000       14.0070           0
      8070 MEMB     61       POPC     C12      CTL2    -0.100000       12.0110           0
      8071 MEMB     61       POPC     H12A     HL       0.250000       1.00800           0
      8072 MEMB     61       POPC     H12B     HL       0.250000       1.00800           0
      8073 MEMB     61       POPC     C13      CTL5    -0.350000       12.0110           0
      8074 MEMB     61       POPC     H13A     HL       0.250000       1.00800           0
      8075 MEMB     61       POPC     H13B     HL       0.250000       1.00800           0
      8076 MEMB     61       POPC     H13C     HL       0.250000       1.00800           0
      8077 MEMB     61       POPC     C14      CTL5    -0.350000       12.0110           0
      8078 MEMB     61       POPC     H14A     HL       0.250000       1.00800           0
      8079 MEMB     61       POPC     H14B     HL       0.250000       1.00800           0
      8080 MEMB     61       POPC     H14C     HL       0.250000       1.00800           0
      8081 MEMB     61       POPC     C15      CTL5    -0.350000       12.0110           0
      8082 MEMB     61       POPC     H15A     HL       0.250000       1.00800           0
      8083 MEMB     61       POPC     H15B     HL       0.250000       1.00800           0
      8084 MEMB     61       POPC     H15C     HL       0.250000       1.00800           0
      8085 MEMB     61       POPC     C11      CTL2    -0.800000E-01   12.0110           0
      8086 MEMB     61       POPC     H11A     HAL2     0.900000E-01   1.00800           0
      8087 MEMB     61       POPC     H11B     HAL2     0.900000E-01   1.00800           0
      8088 MEMB     61       POPC     P        PL       1.500000       30.9740           0
      8089 MEMB     61       POPC     O13      O2L     -0.780000       15.9994           0
      8090 MEMB     61       POPC     O14      O2L     -0.780000       15.9994           0
      8091 MEMB     61       POPC     O12      OSLP    -0.570000       15.9994           0
      8092 MEMB     61       POPC     O11      OSLP    -0.570000       15.9994           0
      8093 MEMB     61       POPC     C1       CTL2    -0.800000E-01   12.0110           0
      8094 MEMB     61       POPC     HA       HAL2     0.900000E-01   1.00800           0
      8095 MEMB     61       POPC     HB       HAL2     0.900000E-01   1.00800           0
      8096 MEMB     61       POPC     C2       CTL1     0.170000       12.0110           0
      8097 MEMB     61       POPC     HS       HAL1     0.900000E-01   1.00800           0
      8098 MEMB     61       POPC     O21      OSL     -0.490000       15.9994           0
      8099 MEMB     61       POPC     C21      CL       0.900000       12.0110           0
      8100 MEMB     61       POPC     O22      OBL     -0.630000       15.9994           0
      8101 MEMB     61       POPC     C22      CTL2    -0.220000       12.0110           0
      8102 MEMB     61       POPC     H2R      HAL2     0.900000E-01   1.00800           0
      8103 MEMB     61       POPC     H2S      HAL2     0.900000E-01   1.00800           0
      8104 MEMB     61       POPC     C3       CTL2     0.800000E-01   12.0110           0
      8105 MEMB     61       POPC     HX       HAL2     0.900000E-01   1.00800           0
      8106 MEMB     61       POPC     HY       HAL2     0.900000E-01   1.00800           0
      8107 MEMB     61       POPC     O31      OSL     -0.490000       15.9994           0
      8108 MEMB     61       POPC     C31      CL       0.900000       12.0110           0
      8109 MEMB     61       POPC     O32      OBL     -0.630000       15.9994           0
      8110 MEMB     61       POPC     C32      CTL2    -0.220000       12.0110           0
      8111 MEMB     61       POPC     H2X      HAL2     0.900000E-01   1.00800           0
      8112 MEMB     61       POPC     H2Y      HAL2     0.900000E-01   1.00800           0
      8113 MEMB     61       POPC     C23      CTL2    -0.180000       12.0110           0
      8114 MEMB     61       POPC     H3R      HAL2     0.900000E-01   1.00800           0
      8115 MEMB     61       POPC     H3S      HAL2     0.900000E-01   1.00800           0
      8116 MEMB     61       POPC     C24      CTL2    -0.180000       12.0110           0
      8117 MEMB     61       POPC     H4R      HAL2     0.900000E-01   1.00800           0
      8118 MEMB     61       POPC     H4S      HAL2     0.900000E-01   1.00800           0
      8119 MEMB     61       POPC     C25      CTL2    -0.180000       12.0110           0
      8120 MEMB     61       POPC     H5R      HAL2     0.900000E-01   1.00800           0
      8121 MEMB     61       POPC     H5S      HAL2     0.900000E-01   1.00800           0
      8122 MEMB     61       POPC     C26      CTL2    -0.180000       12.0110           0
      8123 MEMB     61       POPC     H6R      HAL2     0.900000E-01   1.00800           0
      8124 MEMB     61       POPC     H6S      HAL2     0.900000E-01   1.00800           0
      8125 MEMB     61       POPC     C27      CTL2    -0.180000       12.0110           0
      8126 MEMB     61       POPC     H7R      HAL2     0.900000E-01   1.00800           0
      8127 MEMB     61       POPC     H7S      HAL2     0.900000E-01   1.00800           0
      8128 MEMB     61       POPC     C28      CTL2    -0.180000       12.0110           0
      8129 MEMB     61       POPC     H8R      HAL2     0.900000E-01   1.00800           0
      8130 MEMB     61       POPC     H8S      HAL2     0.900000E-01   1.00800           0
      8131 MEMB     61       POPC     C29      CEL1    -0.150000       12.0110           0
      8132 MEMB     61       POPC     H91      HEL1     0.150000       1.00800           0
      8133 MEMB     61       POPC     C210     CEL1    -0.150000       12.0110           0
      8134 MEMB     61       POPC     H101     HEL1     0.150000       1.00800           0
      8135 MEMB     61       POPC     C211     CTL2    -0.180000       12.0110           0
      8136 MEMB     61       POPC     H11R     HAL2     0.900000E-01   1.00800           0
      8137 MEMB     61       POPC     H11S     HAL2     0.900000E-01   1.00800           0
      8138 MEMB     61       POPC     C212     CTL2    -0.180000       12.0110           0
      8139 MEMB     61       POPC     H12R     HAL2     0.900000E-01   1.00800           0
      8140 MEMB     61       POPC     H12S     HAL2     0.900000E-01   1.00800           0
      8141 MEMB     61       POPC     C213     CTL2    -0.180000       12.0110           0
      8142 MEMB     61       POPC     H13R     HAL2     0.900000E-01   1.00800           0
      8143 MEMB     61       POPC     H13S     HAL2     0.900000E-01   1.00800           0
      8144 MEMB     61       POPC     C214     CTL2    -0.180000       12.0110           0
      8145 MEMB     61       POPC     H14R     HAL2     0.900000E-01   1.00800           0
      8146 MEMB     61       POPC     H14S     HAL2     0.900000E-01   1.00800           0
      8147 MEMB     61       POPC     C215     CTL2    -0.180000       12.0110           0
      8148 MEMB     61       POPC     H15R     HAL2     0.900000E-01   1.00800           0
      8149 MEMB     61       POPC     H15S     HAL2     0.900000E-01   1.00800           0
      8150 MEMB     61       POPC     C216     CTL2    -0.180000       12.0110           0
      8151 MEMB     61       POPC     H16R     HAL2     0.900000E-01   1.00800           0
      8152 MEMB     61       POPC     H16S     HAL2     0.900000E-01   1.00800           0
      8153 MEMB     61       POPC     C217     CTL2    -0.180000       12.0110           0
      8154 MEMB     61       POPC     H17R     HAL2     0.900000E-01   1.00800           0
      8155 MEMB     61       POPC     H17S     HAL2     0.900000E-01   1.00800           0
      8156 MEMB     61       POPC     C218     CTL3    -0.270000       12.0110           0
      8157 MEMB     61       POPC     H18R     HAL3     0.900000E-01   1.00800           0
      8158 MEMB     61       POPC     H18S     HAL3     0.900000E-01   1.00800           0
      8159 MEMB     61       POPC     H18T     HAL3     0.900000E-01   1.00800           0
      8160 MEMB     61       POPC     C33      CTL2    -0.180000       12.0110           0
      8161 MEMB     61       POPC     H3X      HAL2     0.900000E-01   1.00800           0
      8162 MEMB     61       POPC     H3Y      HAL2     0.900000E-01   1.00800           0
      8163 MEMB     61       POPC     C34      CTL2    -0.180000       12.0110           0
      8164 MEMB     61       POPC     H4X      HAL2     0.900000E-01   1.00800           0
      8165 MEMB     61       POPC     H4Y      HAL2     0.900000E-01   1.00800           0
      8166 MEMB     61       POPC     C35      CTL2    -0.180000       12.0110           0
      8167 MEMB     61       POPC     H5X      HAL2     0.900000E-01   1.00800           0
      8168 MEMB     61       POPC     H5Y      HAL2     0.900000E-01   1.00800           0
      8169 MEMB     61       POPC     C36      CTL2    -0.180000       12.0110           0
      8170 MEMB     61       POPC     H6X      HAL2     0.900000E-01   1.00800           0
      8171 MEMB     61       POPC     H6Y      HAL2     0.900000E-01   1.00800           0
      8172 MEMB     61       POPC     C37      CTL2    -0.180000       12.0110           0
      8173 MEMB     61       POPC     H7X      HAL2     0.900000E-01   1.00800           0
      8174 MEMB     61       POPC     H7Y      HAL2     0.900000E-01   1.00800           0
      8175 MEMB     61       POPC     C38      CTL2    -0.180000       12.0110           0
      8176 MEMB     61       POPC     H8X      HAL2     0.900000E-01   1.00800           0
      8177 MEMB     61       POPC     H8Y      HAL2     0.900000E-01   1.00800           0
      8178 MEMB     61       POPC     C39      CTL2    -0.180000       12.0110           0
      8179 MEMB     61       POPC     H9X      HAL2     0.900000E-01   1.00800           0
      8180 MEMB     61       POPC     H9Y      HAL2     0.900000E-01   1.00800           0
      8181 MEMB     61       POPC     C310     CTL2    -0.180000       12.0110           0
      8182 MEMB     61       POPC     H10X     HAL2     0.900000E-01   1.00800           0
      8183 MEMB     61       POPC     H10Y     HAL2     0.900000E-01   1.00800           0
      8184 MEMB     61       POPC     C311     CTL2    -0.180000       12.0110           0
      8185 MEMB     61       POPC     H11X     HAL2     0.900000E-01   1.00800           0
      8186 MEMB     61       POPC     H11Y     HAL2     0.900000E-01   1.00800           0
      8187 MEMB     61       POPC     C312     CTL2    -0.180000       12.0110           0
      8188 MEMB     61       POPC     H12X     HAL2     0.900000E-01   1.00800           0
      8189 MEMB     61       POPC     H12Y     HAL2     0.900000E-01   1.00800           0
      8190 MEMB     61       POPC     C313     CTL2    -0.180000       12.0110           0
      8191 MEMB     61       POPC     H13X     HAL2     0.900000E-01   1.00800           0
      8192 MEMB     61       POPC     H13Y     HAL2     0.900000E-01   1.00800           0
      8193 MEMB     61       POPC     C314     CTL2    -0.180000       12.0110           0
      8194 MEMB     61       POPC     H14X     HAL2     0.900000E-01   1.00800           0
      8195 MEMB     61       POPC     H14Y     HAL2     0.900000E-01   1.00800           0
      8196 MEMB     61       POPC     C315     CTL2    -0.180000       12.0110           0
      8197 MEMB     61       POPC     H15X     HAL2     0.900000E-01   1.00800           0
      8198 MEMB     61       POPC     H15Y     HAL2     0.900000E-01   1.00800           0
      8199 MEMB     61       POPC     C316     CTL3    -0.270000       12.0110           0
      8200 MEMB     61       POPC     H16X     HAL3     0.900000E-01   1.00800           0
      8201 MEMB     61       POPC     H16Y     HAL3     0.900000E-01   1.00800           0
      8202 MEMB     61       POPC     H16Z     HAL3     0.900000E-01   1.00800           0
      8203 MEMB     62       POPC     N        NTL     -0.600000       14.0070           0
      8204 MEMB     62       POPC     C12      CTL2    -0.100000       12.0110           0
      8205 MEMB     62       POPC     H12A     HL       0.250000       1.00800           0
      8206 MEMB     62       POPC     H12B     HL       0.250000       1.00800           0
      8207 MEMB     62       POPC     C13      CTL5    -0.350000       12.0110           0
      8208 MEMB     62       POPC     H13A     HL       0.250000       1.00800           0
      8209 MEMB     62       POPC     H13B     HL       0.250000       1.00800           0
      8210 MEMB     62       POPC     H13C     HL       0.250000       1.00800           0
      8211 MEMB     62       POPC     C14      CTL5    -0.350000       12.0110           0
      8212 MEMB     62       POPC     H14A     HL       0.250000       1.00800           0
      8213 MEMB     62       POPC     H14B     HL       0.250000       1.00800           0
      8214 MEMB     62       POPC     H14C     HL       0.250000       1.00800           0
      8215 MEMB     62       POPC     C15      CTL5    -0.350000       12.0110           0
      8216 MEMB     62       POPC     H15A     HL       0.250000       1.00800           0
      8217 MEMB     62       POPC     H15B     HL       0.250000       1.00800           0
      8218 MEMB     62       POPC     H15C     HL       0.250000       1.00800           0
      8219 MEMB     62       POPC     C11      CTL2    -0.800000E-01   12.0110           0
      8220 MEMB     62       POPC     H11A     HAL2     0.900000E-01   1.00800           0
      8221 MEMB     62       POPC     H11B     HAL2     0.900000E-01   1.00800           0
      8222 MEMB     62       POPC     P        PL       1.500000       30.9740           0
      8223 MEMB     62       POPC     O13      O2L     -0.780000       15.9994           0
      8224 MEMB     62       POPC     O14      O2L     -0.780000       15.9994           0
      8225 MEMB     62       POPC     O12      OSLP    -0.570000       15.9994           0
      8226 MEMB     62       POPC     O11      OSLP    -0.570000       15.9994           0
      8227 MEMB     62       POPC     C1       CTL2    -0.800000E-01   12.0110           0
      8228 MEMB     62       POPC     HA       HAL2     0.900000E-01   1.00800           0
      8229 MEMB     62       POPC     HB       HAL2     0.900000E-01   1.00800           0
      8230 MEMB     62       POPC     C2       CTL1     0.170000       12.0110           0
      8231 MEMB     62       POPC     HS       HAL1     0.900000E-01   1.00800           0
      8232 MEMB     62       POPC     O21      OSL     -0.490000       15.9994           0
      8233 MEMB     62       POPC     C21      CL       0.900000       12.0110           0
      8234 MEMB     62       POPC     O22      OBL     -0.630000       15.9994           0
      8235 MEMB     62       POPC     C22      CTL2    -0.220000       12.0110           0
      8236 MEMB     62       POPC     H2R      HAL2     0.900000E-01   1.00800           0
      8237 MEMB     62       POPC     H2S      HAL2     0.900000E-01   1.00800           0
      8238 MEMB     62       POPC     C3       CTL2     0.800000E-01   12.0110           0
      8239 MEMB     62       POPC     HX       HAL2     0.900000E-01   1.00800           0
      8240 MEMB     62       POPC     HY       HAL2     0.900000E-01   1.00800           0
      8241 MEMB     62       POPC     O31      OSL     -0.490000       15.9994           0
      8242 MEMB     62       POPC     C31      CL       0.900000       12.0110           0
      8243 MEMB     62       POPC     O32      OBL     -0.630000       15.9994           0
      8244 MEMB     62       POPC     C32      CTL2    -0.220000       12.0110           0
      8245 MEMB     62       POPC     H2X      HAL2     0.900000E-01   1.00800           0
      8246 MEMB     62       POPC     H2Y      HAL2     0.900000E-01   1.00800           0
      8247 MEMB     62       POPC     C23      CTL2    -0.180000       12.0110           0
      8248 MEMB     62       POPC     H3R      HAL2     0.900000E-01   1.00800           0
      8249 MEMB     62       POPC     H3S      HAL2     0.900000E-01   1.00800           0
      8250 MEMB     62       POPC     C24      CTL2    -0.180000       12.0110           0
      8251 MEMB     62       POPC     H4R      HAL2     0.900000E-01   1.00800           0
      8252 MEMB     62       POPC     H4S      HAL2     0.900000E-01   1.00800           0
      8253 MEMB     62       POPC     C25      CTL2    -0.180000       12.0110           0
      8254 MEMB     62       POPC     H5R      HAL2     0.900000E-01   1.00800           0
      8255 MEMB     62       POPC     H5S      HAL2     0.900000E-01   1.00800           0
      8256 MEMB     62       POPC     C26      CTL2    -0.180000       12.0110           0
      8257 MEMB     62       POPC     H6R      HAL2     0.900000E-01   1.00800           0
      8258 MEMB     62       POPC     H6S      HAL2     0.900000E-01   1.00800           0
      8259 MEMB     62       POPC     C27      CTL2    -0.180000       12.0110           0
      8260 MEMB     62       POPC     H7R      HAL2     0.900000E-01   1.00800           0
      8261 MEMB     62       POPC     H7S      HAL2     0.900000E-01   1.00800           0
      8262 MEMB     62       POPC     C28      CTL2    -0.180000       12.0110           0
      8263 MEMB     62       POPC     H8R      HAL2     0.900000E-01   1.00800           0
      8264 MEMB     62       POPC     H8S      HAL2     0.900000E-01   1.00800           0
      8265 MEMB     62       POPC     C29      CEL1    -0.150000       12.0110           0
      8266 MEMB     62       POPC     H91      HEL1     0.150000       1.00800           0
      8267 MEMB     62       POPC     C210     CEL1    -0.150000       12.0110           0
      8268 MEMB     62       POPC     H101     HEL1     0.150000       1.00800           0
      8269 MEMB     62       POPC     C211     CTL2    -0.180000       12.0110           0
      8270 MEMB     62       POPC     H11R     HAL2     0.900000E-01   1.00800           0
      8271 MEMB     62       POPC     H11S     HAL2     0.900000E-01   1.00800           0
      8272 MEMB     62       POPC     C212     CTL2    -0.180000       12.0110           0
      8273 MEMB     62       POPC     H12R     HAL2     0.900000E-01   1.00800           0
      8274 MEMB     62       POPC     H12S     HAL2     0.900000E-01   1.00800           0
      8275 MEMB     62       POPC     C213     CTL2    -0.180000       12.0110           0
      8276 MEMB     62       POPC     H13R     HAL2     0.900000E-01   1.00800           0
      8277 MEMB     62       POPC     H13S     HAL2     0.900000E-01   1.00800           0
      8278 MEMB     62       POPC     C214     CTL2    -0.180000       12.0110           0
      8279 MEMB     62       POPC     H14R     HAL2     0.900000E-01   1.00800           0
      8280 MEMB     62       POPC     H14S     HAL2     0.900000E-01   1.00800           0
      8281 MEMB     62       POPC     C215     CTL2    -0.180000       12.0110           0
      8282 MEMB     62       POPC     H15R     HAL2     0.900000E-01   1.00800           0
      8283 MEMB     62       POPC     H15S     HAL2     0.900000E-01   1.00800           0
      8284 MEMB     62       POPC     C216     CTL2    -0.180000       12.0110           0
      8285 MEMB     62       POPC     H16R     HAL2     0.900000E-01   1.00800           0
      8286 MEMB     62       POPC     H16S     HAL2     0.900000E-01   1.00800           0
      8287 MEMB     62       POPC     C217     CTL2    -0.180000       12.0110           0
      8288 MEMB     62       POPC     H17R     HAL2     0.900000E-01   1.00800           0
      8289 MEMB     62       POPC     H17S     HAL2     0.900000E-01   1.00800           0
      8290 MEMB     62       POPC     C218     CTL3    -0.270000       12.0110           0
      8291 MEMB     62       POPC     H18R     HAL3     0.900000E-01   1.00800           0
      8292 MEMB     62       POPC     H18S     HAL3     0.900000E-01   1.00800           0
      8293 MEMB     62       POPC     H18T     HAL3     0.900000E-01   1.00800           0
      8294 MEMB     62       POPC     C33      CTL2    -0.180000       12.0110           0
      8295 MEMB     62       POPC     H3X      HAL2     0.900000E-01   1.00800           0
      8296 MEMB     62       POPC     H3Y      HAL2     0.900000E-01   1.00800           0
      8297 MEMB     62       POPC     C34      CTL2    -0.180000       12.0110           0
      8298 MEMB     62       POPC     H4X      HAL2     0.900000E-01   1.00800           0
      8299 MEMB     62       POPC     H4Y      HAL2     0.900000E-01   1.00800           0
      8300 MEMB     62       POPC     C35      CTL2    -0.180000       12.0110           0
      8301 MEMB     62       POPC     H5X      HAL2     0.900000E-01   1.00800           0
      8302 MEMB     62       POPC     H5Y      HAL2     0.900000E-01   1.00800           0
      8303 MEMB     62       POPC     C36      CTL2    -0.180000       12.0110           0
      8304 MEMB     62       POPC     H6X      HAL2     0.900000E-01   1.00800           0
      8305 MEMB     62       POPC     H6Y      HAL2     0.900000E-01   1.00800           0
      8306 MEMB     62       POPC     C37      CTL2    -0.180000       12.0110           0
      8307 MEMB     62       POPC     H7X      HAL2     0.900000E-01   1.00800           0
      8308 MEMB     62       POPC     H7Y      HAL2     0.900000E-01   1.00800           0
      8309 MEMB     62       POPC     C38      CTL2    -0.180000       12.0110           0
      8310 MEMB     62       POPC     H8X      HAL2     0.900000E-01   1.00800           0
      8311 MEMB     62       POPC     H8Y      HAL2     0.900000E-01   1.00800           0
      8312 MEMB     62       POPC     C39      CTL2    -0.180000       12.0110           0
      8313 MEMB     62       POPC     H9X      HAL2     0.900000E-01   1.00800           0
      8314 MEMB     62       POPC     H9Y      HAL2     0.900000E-01   1.00800           0
      8315 MEMB     62       POPC     C310     CTL2    -0.180000       12.0110           0
      8316 MEMB     62       POPC     H10X     HAL2     0.900000E-01   1.00800           0
      8317 MEMB     62       POPC     H10Y     HAL2     0.900000E-01   1.00800           0
      8318 MEMB     62       POPC     C311     CTL2    -0.180000       12.0110           0
      8319 MEMB     62       POPC     H11X     HAL2     0.900000E-01   1.00800           0
      8320 MEMB     62       POPC     H11Y     HAL2     0.900000E-01   1.00800           0
      8321 MEMB     62       POPC     C312     CTL2    -0.180000       12.0110           0
      8322 MEMB     62       POPC     H12X     HAL2     0.900000E-01   1.00800           0
      8323 MEMB     62       POPC     H12Y     HAL2     0.900000E-01   1.00800           0
      8324 MEMB     62       POPC     C313     CTL2    -0.180000       12.0110           0
      8325 MEMB     62       POPC     H13X     HAL2     0.900000E-01   1.00800           0
      8326 MEMB     62       POPC     H13Y     HAL2     0.900000E-01   1.00800           0
      8327 MEMB     62       POPC     C314     CTL2    -0.180000       12.0110           0
      8328 MEMB     62       POPC     H14X     HAL2     0.900000E-01   1.00800           0
      8329 MEMB     62       POPC     H14Y     HAL2     0.900000E-01   1.00800           0
      8330 MEMB     62       POPC     C315     CTL2    -0.180000       12.0110           0
      8331 MEMB     62       POPC     H15X     HAL2     0.900000E-01   1.00800           0
      8332 MEMB     62       POPC     H15Y     HAL2     0.900000E-01   1.00800           0
      8333 MEMB     62       POPC     C316     CTL3    -0.270000       12.0110           0
      8334 MEMB     62       POPC     H16X     HAL3     0.900000E-01   1.00800           0
      8335 MEMB     62       POPC     H16Y     HAL3     0.900000E-01   1.00800           0
      8336 MEMB     62       POPC     H16Z     HAL3     0.900000E-01   1.00800           0
      8337 MEMB     63       POPC     N        NTL     -0.600000       14.0070           0
      8338 MEMB     63       POPC     C12      CTL2    -0.100000       12.0110           0
      8339 MEMB     63       POPC     H12A     HL       0.250000       1.00800           0
      8340 MEMB     63       POPC     H12B     HL       0.250000       1.00800           0
      8341 MEMB     63       POPC     C13      CTL5    -0.350000       12.0110           0
      8342 MEMB     63       POPC     H13A     HL       0.250000       1.00800           0
      8343 MEMB     63       POPC     H13B     HL       0.250000       1.00800           0
      8344 MEMB     63       POPC     H13C     HL       0.250000       1.00800           0
      8345 MEMB     63       POPC     C14      CTL5    -0.350000       12.0110           0
      8346 MEMB     63       POPC     H14A     HL       0.250000       1.00800           0
      8347 MEMB     63       POPC     H14B     HL       0.250000       1.00800           0
      8348 MEMB     63       POPC     H14C     HL       0.250000       1.00800           0
      8349 MEMB     63       POPC     C15      CTL5    -0.350000       12.0110           0
      8350 MEMB     63       POPC     H15A     HL       0.250000       1.00800           0
      8351 MEMB     63       POPC     H15B     HL       0.250000       1.00800           0
      8352 MEMB     63       POPC     H15C     HL       0.250000       1.00800           0
      8353 MEMB     63       POPC     C11      CTL2    -0.800000E-01   12.0110           0
      8354 MEMB     63       POPC     H11A     HAL2     0.900000E-01   1.00800           0
      8355 MEMB     63       POPC     H11B     HAL2     0.900000E-01   1.00800           0
      8356 MEMB     63       POPC     P        PL       1.500000       30.9740           0
      8357 MEMB     63       POPC     O13      O2L     -0.780000       15.9994           0
      8358 MEMB     63       POPC     O14      O2L     -0.780000       15.9994           0
      8359 MEMB     63       POPC     O12      OSLP    -0.570000       15.9994           0
      8360 MEMB     63       POPC     O11      OSLP    -0.570000       15.9994           0
      8361 MEMB     63       POPC     C1       CTL2    -0.800000E-01   12.0110           0
      8362 MEMB     63       POPC     HA       HAL2     0.900000E-01   1.00800           0
      8363 MEMB     63       POPC     HB       HAL2     0.900000E-01   1.00800           0
      8364 MEMB     63       POPC     C2       CTL1     0.170000       12.0110           0
      8365 MEMB     63       POPC     HS       HAL1     0.900000E-01   1.00800           0
      8366 MEMB     63       POPC     O21      OSL     -0.490000       15.9994           0
      8367 MEMB     63       POPC     C21      CL       0.900000       12.0110           0
      8368 MEMB     63       POPC     O22      OBL     -0.630000       15.9994           0
      8369 MEMB     63       POPC     C22      CTL2    -0.220000       12.0110           0
      8370 MEMB     63       POPC     H2R      HAL2     0.900000E-01   1.00800           0
      8371 MEMB     63       POPC     H2S      HAL2     0.900000E-01   1.00800           0
      8372 MEMB     63       POPC     C3       CTL2     0.800000E-01   12.0110           0
      8373 MEMB     63       POPC     HX       HAL2     0.900000E-01   1.00800           0
      8374 MEMB     63       POPC     HY       HAL2     0.900000E-01   1.00800           0
      8375 MEMB     63       POPC     O31      OSL     -0.490000       15.9994           0
      8376 MEMB     63       POPC     C31      CL       0.900000       12.0110           0
      8377 MEMB     63       POPC     O32      OBL     -0.630000       15.9994           0
      8378 MEMB     63       POPC     C32      CTL2    -0.220000       12.0110           0
      8379 MEMB     63       POPC     H2X      HAL2     0.900000E-01   1.00800           0
      8380 MEMB     63       POPC     H2Y      HAL2     0.900000E-01   1.00800           0
      8381 MEMB     63       POPC     C23      CTL2    -0.180000       12.0110           0
      8382 MEMB     63       POPC     H3R      HAL2     0.900000E-01   1.00800           0
      8383 MEMB     63       POPC     H3S      HAL2     0.900000E-01   1.00800           0
      8384 MEMB     63       POPC     C24      CTL2    -0.180000       12.0110           0
      8385 MEMB     63       POPC     H4R      HAL2     0.900000E-01   1.00800           0
      8386 MEMB     63       POPC     H4S      HAL2     0.900000E-01   1.00800           0
      8387 MEMB     63       POPC     C25      CTL2    -0.180000       12.0110           0
      8388 MEMB     63       POPC     H5R      HAL2     0.900000E-01   1.00800           0
      8389 MEMB     63       POPC     H5S      HAL2     0.900000E-01   1.00800           0
      8390 MEMB     63       POPC     C26      CTL2    -0.180000       12.0110           0
      8391 MEMB     63       POPC     H6R      HAL2     0.900000E-01   1.00800           0
      8392 MEMB     63       POPC     H6S      HAL2     0.900000E-01   1.00800           0
      8393 MEMB     63       POPC     C27      CTL2    -0.180000       12.0110           0
      8394 MEMB     63       POPC     H7R      HAL2     0.900000E-01   1.00800           0
      8395 MEMB     63       POPC     H7S      HAL2     0.900000E-01   1.00800           0
      8396 MEMB     63       POPC     C28      CTL2    -0.180000       12.0110           0
      8397 MEMB     63       POPC     H8R      HAL2     0.900000E-01   1.00800           0
      8398 MEMB     63       POPC     H8S      HAL2     0.900000E-01   1.00800           0
      8399 MEMB     63       POPC     C29      CEL1    -0.150000       12.0110           0
      8400 MEMB     63       POPC     H91      HEL1     0.150000       1.00800           0
      8401 MEMB     63       POPC     C210     CEL1    -0.150000       12.0110           0
      8402 MEMB     63       POPC     H101     HEL1     0.150000       1.00800           0
      8403 MEMB     63       POPC     C211     CTL2    -0.180000       12.0110           0
      8404 MEMB     63       POPC     H11R     HAL2     0.900000E-01   1.00800           0
      8405 MEMB     63       POPC     H11S     HAL2     0.900000E-01   1.00800           0
      8406 MEMB     63       POPC     C212     CTL2    -0.180000       12.0110           0
      8407 MEMB     63       POPC     H12R     HAL2     0.900000E-01   1.00800           0
      8408 MEMB     63       POPC     H12S     HAL2     0.900000E-01   1.00800           0
      8409 MEMB     63       POPC     C213     CTL2    -0.180000       12.0110           0
      8410 MEMB     63       POPC     H13R     HAL2     0.900000E-01   1.00800           0
      8411 MEMB     63       POPC     H13S     HAL2     0.900000E-01   1.00800           0
      8412 MEMB     63       POPC     C214     CTL2    -0.180000       12.0110           0
      8413 MEMB     63       POPC     H14R     HAL2     0.900000E-01   1.00800           0
      8414 MEMB     63       POPC     H14S     HAL2     0.900000E-01   1.00800           0
      8415 MEMB     63       POPC     C215     CTL2    -0.180000       12.0110           0
      8416 MEMB     63       POPC     H15R     HAL2     0.900000E-01   1.00800           0
      8417 MEMB     63       POPC     H15S     HAL2     0.900000E-01   1.00800           0
      8418 MEMB     63       POPC     C216     CTL2    -0.180000       12.0110           0
      8419 MEMB     63       POPC     H16R     HAL2     0.900000E-01   1.00800           0
      8420 MEMB     63       POPC     H16S     HAL2     0.900000E-01   1.00800           0
      8421 MEMB     63       POPC     C217     CTL2    -0.180000       12.0110           0
      8422 MEMB     63       POPC     H17R     HAL2     0.900000E-01   1.00800           0
      8423 MEMB     63       POPC     H17S     HAL2     0.900000E-01   1.00800           0
      8424 MEMB     63       POPC     C218     CTL3    -0.270000       12.0110           0
      8425 MEMB     63       POPC     H18R     HAL3     0.900000E-01   1.00800           0
      8426 MEMB     63       POPC     H18S     HAL3     0.900000E-01   1.00800           0
      8427 MEMB     63       POPC     H18T     HAL3     0.900000E-01   1.00800           0
      8428 MEMB     63       POPC     C33      CTL2    -0.180000       12.0110           0
      8429 MEMB     63       POPC     H3X      HAL2     0.900000E-01   1.00800           0
      8430 MEMB     63       POPC     H3Y      HAL2     0.900000E-01   1.00800           0
      8431 MEMB     63       POPC     C34      CTL2    -0.180000       12.0110           0
      8432 MEMB     63       POPC     H4X      HAL2     0.900000E-01   1.00800           0
      8433 MEMB     63       POPC     H4Y      HAL2     0.900000E-01   1.00800           0
      8434 MEMB     63       POPC     C35      CTL2    -0.180000       12.0110           0
      8435 MEMB     63       POPC     H5X      HAL2     0.900000E-01   1.00800           0
      8436 MEMB     63       POPC     H5Y      HAL2     0.900000E-01   1.00800           0
      8437 MEMB     63       POPC     C36      CTL2    -0.180000       12.0110           0
      8438 MEMB     63       POPC     H6X      HAL2     0.900000E-01   1.00800           0
      8439 MEMB     63       POPC     H6Y      HAL2     0.900000E-01   1.00800           0
      8440 MEMB     63       POPC     C37      CTL2    -0.180000       12.0110           0
      8441 MEMB     63       POPC     H7X      HAL2     0.900000E-01   1.00800           0
      8442 MEMB     63       POPC     H7Y      HAL2     0.900000E-01   1.00800           0
      8443 MEMB     63       POPC     C38      CTL2    -0.180000       12.0110           0
      8444 MEMB     63       POPC     H8X      HAL2     0.900000E-01   1.00800           0
      8445 MEMB     63       POPC     H8Y      HAL2     0.900000E-01   1.00800           0
      8446 MEMB     63       POPC     C39      CTL2    -0.180000       12.0110           0
      8447 MEMB     63       POPC     H9X      HAL2     0.900000E-01   1.00800           0
      8448 MEMB     63       POPC     H9Y      HAL2     0.900000E-01   1.00800           0
      8449 MEMB     63       POPC     C310     CTL2    -0.180000       12.0110           0
      8450 MEMB     63       POPC     H10X     HAL2     0.900000E-01   1.00800           0
      8451 MEMB     63       POPC     H10Y     HAL2     0.900000E-01   1.00800           0
      8452 MEMB     63       POPC     C311     CTL2    -0.180000       12.0110           0
      8453 MEMB     63       POPC     H11X     HAL2     0.900000E-01   1.00800           0
      8454 MEMB     63       POPC     H11Y     HAL2     0.900000E-01   1.00800           0
      8455 MEMB     63       POPC     C312     CTL2    -0.180000       12.0110           0
      8456 MEMB     63       POPC     H12X     HAL2     0.900000E-01   1.00800           0
      8457 MEMB     63       POPC     H12Y     HAL2     0.900000E-01   1.00800           0
      8458 MEMB     63       POPC     C313     CTL2    -0.180000       12.0110           0
      8459 MEMB     63       POPC     H13X     HAL2     0.900000E-01   1.00800           0
      8460 MEMB     63       POPC     H13Y     HAL2     0.900000E-01   1.00800           0
      8461 MEMB     63       POPC     C314     CTL2    -0.180000       12.0110           0
      8462 MEMB     63       POPC     H14X     HAL2     0.900000E-01   1.00800           0
      8463 MEMB     63       POPC     H14Y     HAL2     0.900000E-01   1.00800           0
      8464 MEMB     63       POPC     C315     CTL2    -0.180000       12.0110           0
      8465 MEMB     63       POPC     H15X     HAL2     0.900000E-01   1.00800           0
      8466 MEMB     63       POPC     H15Y     HAL2     0.900000E-01   1.00800           0
      8467 MEMB     63       POPC     C316     CTL3    -0.270000       12.0110           0
      8468 MEMB     63       POPC     H16X     HAL3     0.900000E-01   1.00800           0
      8469 MEMB     63       POPC     H16Y     HAL3     0.900000E-01   1.00800           0
      8470 MEMB     63       POPC     H16Z     HAL3     0.900000E-01   1.00800           0
      8471 MEMB     64       POPS     N        NH3L    -0.300000       14.0070           0
      8472 MEMB     64       POPS     HN1      HCL      0.330000       1.00800           0
      8473 MEMB     64       POPS     HN2      HCL      0.330000       1.00800           0
      8474 MEMB     64       POPS     HN3      HCL      0.330000       1.00800           0
      8475 MEMB     64       POPS     C12      CTL1     0.210000       12.0110           0
      8476 MEMB     64       POPS     H12A     HBL      0.100000       1.00800           0
      8477 MEMB     64       POPS     C13      CCL      0.340000       12.0110           0
      8478 MEMB     64       POPS     O13A     OCL     -0.670000       15.9994           0
      8479 MEMB     64       POPS     O13B     OCL     -0.670000       15.9994           0
      8480 MEMB     64       POPS     C11      CTL2    -0.800000E-01   12.0110           0
      8481 MEMB     64       POPS     H11A     HAL2     0.900000E-01   1.00800           0
      8482 MEMB     64       POPS     H11B     HAL2     0.900000E-01   1.00800           0
      8483 MEMB     64       POPS     P        PL       1.500000       30.9740           0
      8484 MEMB     64       POPS     O13      O2L     -0.780000       15.9994           0
      8485 MEMB     64       POPS     O14      O2L     -0.780000       15.9994           0
      8486 MEMB     64       POPS     O12      OSLP    -0.570000       15.9994           0
      8487 MEMB     64       POPS     O11      OSLP    -0.570000       15.9994           0
      8488 MEMB     64       POPS     C1       CTL2    -0.800000E-01   12.0110           0
      8489 MEMB     64       POPS     HA       HAL2     0.900000E-01   1.00800           0
      8490 MEMB     64       POPS     HB       HAL2     0.900000E-01   1.00800           0
      8491 MEMB     64       POPS     C2       CTL1     0.170000       12.0110           0
      8492 MEMB     64       POPS     HS       HAL1     0.900000E-01   1.00800           0
      8493 MEMB     64       POPS     O21      OSL     -0.490000       15.9994           0
      8494 MEMB     64       POPS     C21      CL       0.900000       12.0110           0
      8495 MEMB     64       POPS     O22      OBL     -0.630000       15.9994           0
      8496 MEMB     64       POPS     C22      CTL2    -0.220000       12.0110           0
      8497 MEMB     64       POPS     H2R      HAL2     0.900000E-01   1.00800           0
      8498 MEMB     64       POPS     H2S      HAL2     0.900000E-01   1.00800           0
      8499 MEMB     64       POPS     C3       CTL2     0.800000E-01   12.0110           0
      8500 MEMB     64       POPS     HX       HAL2     0.900000E-01   1.00800           0
      8501 MEMB     64       POPS     HY       HAL2     0.900000E-01   1.00800           0
      8502 MEMB     64       POPS     O31      OSL     -0.490000       15.9994           0
      8503 MEMB     64       POPS     C31      CL       0.900000       12.0110           0
      8504 MEMB     64       POPS     O32      OBL     -0.630000       15.9994           0
      8505 MEMB     64       POPS     C32      CTL2    -0.220000       12.0110           0
      8506 MEMB     64       POPS     H2X      HAL2     0.900000E-01   1.00800           0
      8507 MEMB     64       POPS     H2Y      HAL2     0.900000E-01   1.00800           0
      8508 MEMB     64       POPS     C23      CTL2    -0.180000       12.0110           0
      8509 MEMB     64       POPS     H3R      HAL2     0.900000E-01   1.00800           0
      8510 MEMB     64       POPS     H3S      HAL2     0.900000E-01   1.00800           0
      8511 MEMB     64       POPS     C24      CTL2    -0.180000       12.0110           0
      8512 MEMB     64       POPS     H4R      HAL2     0.900000E-01   1.00800           0
      8513 MEMB     64       POPS     H4S      HAL2     0.900000E-01   1.00800           0
      8514 MEMB     64       POPS     C25      CTL2    -0.180000       12.0110           0
      8515 MEMB     64       POPS     H5R      HAL2     0.900000E-01   1.00800           0
      8516 MEMB     64       POPS     H5S      HAL2     0.900000E-01   1.00800           0
      8517 MEMB     64       POPS     C26      CTL2    -0.180000       12.0110           0
      8518 MEMB     64       POPS     H6R      HAL2     0.900000E-01   1.00800           0
      8519 MEMB     64       POPS     H6S      HAL2     0.900000E-01   1.00800           0
      8520 MEMB     64       POPS     C27      CTL2    -0.180000       12.0110           0
      8521 MEMB     64       POPS     H7R      HAL2     0.900000E-01   1.00800           0
      8522 MEMB     64       POPS     H7S      HAL2     0.900000E-01   1.00800           0
      8523 MEMB     64       POPS     C28      CTL2    -0.180000       12.0110           0
      8524 MEMB     64       POPS     H8R      HAL2     0.900000E-01   1.00800           0
      8525 MEMB     64       POPS     H8S      HAL2     0.900000E-01   1.00800           0
      8526 MEMB     64       POPS     C29      CEL1    -0.150000       12.0110           0
      8527 MEMB     64       POPS     H91      HEL1     0.150000       1.00800           0
      8528 MEMB     64       POPS     C210     CEL1    -0.150000       12.0110           0
      8529 MEMB     64       POPS     H101     HEL1     0.150000       1.00800           0
      8530 MEMB     64       POPS     C211     CTL2    -0.180000       12.0110           0
      8531 MEMB     64       POPS     H11R     HAL2     0.900000E-01   1.00800           0
      8532 MEMB     64       POPS     H11S     HAL2     0.900000E-01   1.00800           0
      8533 MEMB     64       POPS     C212     CTL2    -0.180000       12.0110           0
      8534 MEMB     64       POPS     H12R     HAL2     0.900000E-01   1.00800           0
      8535 MEMB     64       POPS     H12S     HAL2     0.900000E-01   1.00800           0
      8536 MEMB     64       POPS     C213     CTL2    -0.180000       12.0110           0
      8537 MEMB     64       POPS     H13R     HAL2     0.900000E-01   1.00800           0
      8538 MEMB     64       POPS     H13S     HAL2     0.900000E-01   1.00800           0
      8539 MEMB     64       POPS     C214     CTL2    -0.180000       12.0110           0
      8540 MEMB     64       POPS     H14R     HAL2     0.900000E-01   1.00800           0
      8541 MEMB     64       POPS     H14S     HAL2     0.900000E-01   1.00800           0
      8542 MEMB     64       POPS     C215     CTL2    -0.180000       12.0110           0
      8543 MEMB     64       POPS     H15R     HAL2     0.900000E-01   1.00800           0
      8544 MEMB     64       POPS     H15S     HAL2     0.900000E-01   1.00800           0
      8545 MEMB     64       POPS     C216     CTL2    -0.180000       12.0110           0
      8546 MEMB     64       POPS     H16R     HAL2     0.900000E-01   1.00800           0
      8547 MEMB     64       POPS     H16S     HAL2     0.900000E-01   1.00800           0
      8548 MEMB     64       POPS     C217     CTL2    -0.180000       12.0110           0
      8549 MEMB     64       POPS     H17R     HAL2     0.900000E-01   1.00800           0
      8550 MEMB     64       POPS     H17S     HAL2     0.900000E-01   1.00800           0
      8551 MEMB     64       POPS     C218     CTL3    -0.270000       12.0110           0
      8552 MEMB     64       POPS     H18R     HAL3     0.900000E-01   1.00800           0
      8553 MEMB     64       POPS     H18S     HAL3     0.900000E-01   1.00800           0
      8554 MEMB     64       POPS     H18T     HAL3     0.900000E-01   1.00800           0
      8555 MEMB     64       POPS     C33      CTL2    -0.180000       12.0110           0
      8556 MEMB     64       POPS     H3X      HAL2     0.900000E-01   1.00800           0
      8557 MEMB     64       POPS     H3Y      HAL2     0.900000E-01   1.00800           0
      8558 MEMB     64       POPS     C34      CTL2    -0.180000       12.0110           0
      8559 MEMB     64       POPS     H4X      HAL2     0.900000E-01   1.00800           0
      8560 MEMB     64       POPS     H4Y      HAL2     0.900000E-01   1.00800           0
      8561 MEMB     64       POPS     C35      CTL2    -0.180000       12.0110           0
      8562 MEMB     64       POPS     H5X      HAL2     0.900000E-01   1.00800           0
      8563 MEMB     64       POPS     H5Y      HAL2     0.900000E-01   1.00800           0
      8564 MEMB     64       POPS     C36      CTL2    -0.180000       12.0110           0
      8565 MEMB     64       POPS     H6X      HAL2     0.900000E-01   1.00800           0
      8566 MEMB     64       POPS     H6Y      HAL2     0.900000E-01   1.00800           0
      8567 MEMB     64       POPS     C37      CTL2    -0.180000       12.0110           0
      8568 MEMB     64       POPS     H7X      HAL2     0.900000E-01   1.00800           0
      8569 MEMB     64       POPS     H7Y      HAL2     0.900000E-01   1.00800           0
      8570 MEMB     64       POPS     C38      CTL2    -0.180000       12.0110           0
      8571 MEMB     64       POPS     H8X      HAL2     0.900000E-01   1.00800           0
      8572 MEMB     64       POPS     H8Y      HAL2     0.900000E-01   1.00800           0
      8573 MEMB     64       POPS     C39      CTL2    -0.180000       12.0110           0
      8574 MEMB     64       POPS     H9X      HAL2     0.900000E-01   1.00800           0
      8575 MEMB     64       POPS     H9Y      HAL2     0.900000E-01   1.00800           0
      8576 MEMB     64       POPS     C310     CTL2    -0.180000       12.0110           0
      8577 MEMB     64       POPS     H10X     HAL2     0.900000E-01   1.00800           0
      8578 MEMB     64       POPS     H10Y     HAL2     0.900000E-01   1.00800           0
      8579 MEMB     64       POPS     C311     CTL2    -0.180000       12.0110           0
      8580 MEMB     64       POPS     H11X     HAL2     0.900000E-01   1.00800           0
      8581 MEMB     64       POPS     H11Y     HAL2     0.900000E-01   1.00800           0
      8582 MEMB     64       POPS     C312     CTL2    -0.180000       12.0110           0
      8583 MEMB     64       POPS     H12X     HAL2     0.900000E-01   1.00800           0
      8584 MEMB     64       POPS     H12Y     HAL2     0.900000E-01   1.00800           0
      8585 MEMB     64       POPS     C313     CTL2    -0.180000       12.0110           0
      8586 MEMB     64       POPS     H13X     HAL2     0.900000E-01   1.00800           0
      8587 MEMB     64       POPS     H13Y     HAL2     0.900000E-01   1.00800           0
      8588 MEMB     64       POPS     C314     CTL2    -0.180000       12.0110           0
      8589 MEMB     64       POPS     H14X     HAL2     0.900000E-01   1.00800           0
      8590 MEMB     64       POPS     H14Y     HAL2     0.900000E-01   1.00800           0
      8591 MEMB     64       POPS     C315     CTL2    -0.180000       12.0110           0
      8592 MEMB     64       POPS     H15X     HAL2     0.900000E-01   1.00800           0
      8593 MEMB     64       POPS     H15Y     HAL2     0.900000E-01   1.00800           0
      8594 MEMB     64       POPS     C316     CTL3    -0.270000       12.0110           0
      8595 MEMB     64       POPS     H16X     HAL3     0.900000E-01   1.00800           0
      8596 MEMB     64       POPS     H16Y     HAL3     0.900000E-01   1.00800           0
      8597 MEMB     64       POPS     H16Z     HAL3     0.900000E-01   1.00800           0
      8598 MEMB     65       POPC     N        NTL     -0.600000       14.0070           0
      8599 MEMB     65       POPC     C12      CTL2    -0.100000       12.0110           0
      8600 MEMB     65       POPC     H12A     HL       0.250000       1.00800           0
      8601 MEMB     65       POPC     H12B     HL       0.250000       1.00800           0
      8602 MEMB     65       POPC     C13      CTL5    -0.350000       12.0110           0
      8603 MEMB     65       POPC     H13A     HL       0.250000       1.00800           0
      8604 MEMB     65       POPC     H13B     HL       0.250000       1.00800           0
      8605 MEMB     65       POPC     H13C     HL       0.250000       1.00800           0
      8606 MEMB     65       POPC     C14      CTL5    -0.350000       12.0110           0
      8607 MEMB     65       POPC     H14A     HL       0.250000       1.00800           0
      8608 MEMB     65       POPC     H14B     HL       0.250000       1.00800           0
      8609 MEMB     65       POPC     H14C     HL       0.250000       1.00800           0
      8610 MEMB     65       POPC     C15      CTL5    -0.350000       12.0110           0
      8611 MEMB     65       POPC     H15A     HL       0.250000       1.00800           0
      8612 MEMB     65       POPC     H15B     HL       0.250000       1.00800           0
      8613 MEMB     65       POPC     H15C     HL       0.250000       1.00800           0
      8614 MEMB     65       POPC     C11      CTL2    -0.800000E-01   12.0110           0
      8615 MEMB     65       POPC     H11A     HAL2     0.900000E-01   1.00800           0
      8616 MEMB     65       POPC     H11B     HAL2     0.900000E-01   1.00800           0
      8617 MEMB     65       POPC     P        PL       1.500000       30.9740           0
      8618 MEMB     65       POPC     O13      O2L     -0.780000       15.9994           0
      8619 MEMB     65       POPC     O14      O2L     -0.780000       15.9994           0
      8620 MEMB     65       POPC     O12      OSLP    -0.570000       15.9994           0
      8621 MEMB     65       POPC     O11      OSLP    -0.570000       15.9994           0
      8622 MEMB     65       POPC     C1       CTL2    -0.800000E-01   12.0110           0
      8623 MEMB     65       POPC     HA       HAL2     0.900000E-01   1.00800           0
      8624 MEMB     65       POPC     HB       HAL2     0.900000E-01   1.00800           0
      8625 MEMB     65       POPC     C2       CTL1     0.170000       12.0110           0
      8626 MEMB     65       POPC     HS       HAL1     0.900000E-01   1.00800           0
      8627 MEMB     65       POPC     O21      OSL     -0.490000       15.9994           0
      8628 MEMB     65       POPC     C21      CL       0.900000       12.0110           0
      8629 MEMB     65       POPC     O22      OBL     -0.630000       15.9994           0
      8630 MEMB     65       POPC     C22      CTL2    -0.220000       12.0110           0
      8631 MEMB     65       POPC     H2R      HAL2     0.900000E-01   1.00800           0
      8632 MEMB     65       POPC     H2S      HAL2     0.900000E-01   1.00800           0
      8633 MEMB     65       POPC     C3       CTL2     0.800000E-01   12.0110           0
      8634 MEMB     65       POPC     HX       HAL2     0.900000E-01   1.00800           0
      8635 MEMB     65       POPC     HY       HAL2     0.900000E-01   1.00800           0
      8636 MEMB     65       POPC     O31      OSL     -0.490000       15.9994           0
      8637 MEMB     65       POPC     C31      CL       0.900000       12.0110           0
      8638 MEMB     65       POPC     O32      OBL     -0.630000       15.9994           0
      8639 MEMB     65       POPC     C32      CTL2    -0.220000       12.0110           0
      8640 MEMB     65       POPC     H2X      HAL2     0.900000E-01   1.00800           0
      8641 MEMB     65       POPC     H2Y      HAL2     0.900000E-01   1.00800           0
      8642 MEMB     65       POPC     C23      CTL2    -0.180000       12.0110           0
      8643 MEMB     65       POPC     H3R      HAL2     0.900000E-01   1.00800           0
      8644 MEMB     65       POPC     H3S      HAL2     0.900000E-01   1.00800           0
      8645 MEMB     65       POPC     C24      CTL2    -0.180000       12.0110           0
      8646 MEMB     65       POPC     H4R      HAL2     0.900000E-01   1.00800           0
      8647 MEMB     65       POPC     H4S      HAL2     0.900000E-01   1.00800           0
      8648 MEMB     65       POPC     C25      CTL2    -0.180000       12.0110           0
      8649 MEMB     65       POPC     H5R      HAL2     0.900000E-01   1.00800           0
      8650 MEMB     65       POPC     H5S      HAL2     0.900000E-01   1.00800           0
      8651 MEMB     65       POPC     C26      CTL2    -0.180000       12.0110           0
      8652 MEMB     65       POPC     H6R      HAL2     0.900000E-01   1.00800           0
      8653 MEMB     65       POPC     H6S      HAL2     0.900000E-01   1.00800           0
      8654 MEMB     65       POPC     C27      CTL2    -0.180000       12.0110           0
      8655 MEMB     65       POPC     H7R      HAL2     0.900000E-01   1.00800           0
      8656 MEMB     65       POPC     H7S      HAL2     0.900000E-01   1.00800           0
      8657 MEMB     65       POPC     C28      CTL2    -0.180000       12.0110           0
      8658 MEMB     65       POPC     H8R      HAL2     0.900000E-01   1.00800           0
      8659 MEMB     65       POPC     H8S      HAL2     0.900000E-01   1.00800           0
      8660 MEMB     65       POPC     C29      CEL1    -0.150000       12.0110           0
      8661 MEMB     65       POPC     H91      HEL1     0.150000       1.00800           0
      8662 MEMB     65       POPC     C210     CEL1    -0.150000       12.0110           0
      8663 MEMB     65       POPC     H101     HEL1     0.150000       1.00800           0
      8664 MEMB     65       POPC     C211     CTL2    -0.180000       12.0110           0
      8665 MEMB     65       POPC     H11R     HAL2     0.900000E-01   1.00800           0
      8666 MEMB     65       POPC     H11S     HAL2     0.900000E-01   1.00800           0
      8667 MEMB     65       POPC     C212     CTL2    -0.180000       12.0110           0
      8668 MEMB     65       POPC     H12R     HAL2     0.900000E-01   1.00800           0
      8669 MEMB     65       POPC     H12S     HAL2     0.900000E-01   1.00800           0
      8670 MEMB     65       POPC     C213     CTL2    -0.180000       12.0110           0
      8671 MEMB     65       POPC     H13R     HAL2     0.900000E-01   1.00800           0
      8672 MEMB     65       POPC     H13S     HAL2     0.900000E-01   1.00800           0
      8673 MEMB     65       POPC     C214     CTL2    -0.180000       12.0110           0
      8674 MEMB     65       POPC     H14R     HAL2     0.900000E-01   1.00800           0
      8675 MEMB     65       POPC     H14S     HAL2     0.900000E-01   1.00800           0
      8676 MEMB     65       POPC     C215     CTL2    -0.180000       12.0110           0
      8677 MEMB     65       POPC     H15R     HAL2     0.900000E-01   1.00800           0
      8678 MEMB     65       POPC     H15S     HAL2     0.900000E-01   1.00800           0
      8679 MEMB     65       POPC     C216     CTL2    -0.180000       12.0110           0
      8680 MEMB     65       POPC     H16R     HAL2     0.900000E-01   1.00800           0
      8681 MEMB     65       POPC     H16S     HAL2     0.900000E-01   1.00800           0
      8682 MEMB     65       POPC     C217     CTL2    -0.180000       12.0110           0
      8683 MEMB     65       POPC     H17R     HAL2     0.900000E-01   1.00800           0
      8684 MEMB     65       POPC     H17S     HAL2     0.900000E-01   1.00800           0
      8685 MEMB     65       POPC     C218     CTL3    -0.270000       12.0110           0
      8686 MEMB     65       POPC     H18R     HAL3     0.900000E-01   1.00800           0
      8687 MEMB     65       POPC     H18S     HAL3     0.900000E-01   1.00800           0
      8688 MEMB     65       POPC     H18T     HAL3     0.900000E-01   1.00800           0
      8689 MEMB     65       POPC     C33      CTL2    -0.180000       12.0110           0
      8690 MEMB     65       POPC     H3X      HAL2     0.900000E-01   1.00800           0
      8691 MEMB     65       POPC     H3Y      HAL2     0.900000E-01   1.00800           0
      8692 MEMB     65       POPC     C34      CTL2    -0.180000       12.0110           0
      8693 MEMB     65       POPC     H4X      HAL2     0.900000E-01   1.00800           0
      8694 MEMB     65       POPC     H4Y      HAL2     0.900000E-01   1.00800           0
      8695 MEMB     65       POPC     C35      CTL2    -0.180000       12.0110           0
      8696 MEMB     65       POPC     H5X      HAL2     0.900000E-01   1.00800           0
      8697 MEMB     65       POPC     H5Y      HAL2     0.900000E-01   1.00800           0
      8698 MEMB     65       POPC     C36      CTL2    -0.180000       12.0110           0
      8699 MEMB     65       POPC     H6X      HAL2     0.900000E-01   1.00800           0
      8700 MEMB     65       POPC     H6Y      HAL2     0.900000E-01   1.00800           0
      8701 MEMB     65       POPC     C37      CTL2    -0.180000       12.0110           0
      8702 MEMB     65       POPC     H7X      HAL2     0.900000E-01   1.00800           0
      8703 MEMB     65       POPC     H7Y      HAL2     0.900000E-01   1.00800           0
      8704 MEMB     65       POPC     C38      CTL2    -0.180000       12.0110           0
      8705 MEMB     65       POPC     H8X      HAL2     0.900000E-01   1.00800           0
      8706 MEMB     65       POPC     H8Y      HAL2     0.900000E-01   1.00800           0
      8707 MEMB     65       POPC     C39      CTL2    -0.180000       12.0110           0
      8708 MEMB     65       POPC     H9X      HAL2     0.900000E-01   1.00800           0
      8709 MEMB     65       POPC     H9Y      HAL2     0.900000E-01   1.00800           0
      8710 MEMB     65       POPC     C310     CTL2    -0.180000       12.0110           0
      8711 MEMB     65       POPC     H10X     HAL2     0.900000E-01   1.00800           0
      8712 MEMB     65       POPC     H10Y     HAL2     0.900000E-01   1.00800           0
      8713 MEMB     65       POPC     C311     CTL2    -0.180000       12.0110           0
      8714 MEMB     65       POPC     H11X     HAL2     0.900000E-01   1.00800           0
      8715 MEMB     65       POPC     H11Y     HAL2     0.900000E-01   1.00800           0
      8716 MEMB     65       POPC     C312     CTL2    -0.180000       12.0110           0
      8717 MEMB     65       POPC     H12X     HAL2     0.900000E-01   1.00800           0
      8718 MEMB     65       POPC     H12Y     HAL2     0.900000E-01   1.00800           0
      8719 MEMB     65       POPC     C313     CTL2    -0.180000       12.0110           0
      8720 MEMB     65       POPC     H13X     HAL2     0.900000E-01   1.00800           0
      8721 MEMB     65       POPC     H13Y     HAL2     0.900000E-01   1.00800           0
      8722 MEMB     65       POPC     C314     CTL2    -0.180000       12.0110           0
      8723 MEMB     65       POPC     H14X     HAL2     0.900000E-01   1.00800           0
      8724 MEMB     65       POPC     H14Y     HAL2     0.900000E-01   1.00800           0
      8725 MEMB     65       POPC     C315     CTL2    -0.180000       12.0110           0
      8726 MEMB     65       POPC     H15X     HAL2     0.900000E-01   1.00800           0
      8727 MEMB     65       POPC     H15Y     HAL2     0.900000E-01   1.00800           0
      8728 MEMB     65       POPC     C316     CTL3    -0.270000       12.0110           0
      8729 MEMB     65       POPC     H16X     HAL3     0.900000E-01   1.00800           0
      8730 MEMB     65       POPC     H16Y     HAL3     0.900000E-01   1.00800           0
      8731 MEMB     65       POPC     H16Z     HAL3     0.900000E-01   1.00800           0
      8732 MEMB     66       POPC     N        NTL     -0.600000       14.0070           0
      8733 MEMB     66       POPC     C12      CTL2    -0.100000       12.0110           0
      8734 MEMB     66       POPC     H12A     HL       0.250000       1.00800           0
      8735 MEMB     66       POPC     H12B     HL       0.250000       1.00800           0
      8736 MEMB     66       POPC     C13      CTL5    -0.350000       12.0110           0
      8737 MEMB     66       POPC     H13A     HL       0.250000       1.00800           0
      8738 MEMB     66       POPC     H13B     HL       0.250000       1.00800           0
      8739 MEMB     66       POPC     H13C     HL       0.250000       1.00800           0
      8740 MEMB     66       POPC     C14      CTL5    -0.350000       12.0110           0
      8741 MEMB     66       POPC     H14A     HL       0.250000       1.00800           0
      8742 MEMB     66       POPC     H14B     HL       0.250000       1.00800           0
      8743 MEMB     66       POPC     H14C     HL       0.250000       1.00800           0
      8744 MEMB     66       POPC     C15      CTL5    -0.350000       12.0110           0
      8745 MEMB     66       POPC     H15A     HL       0.250000       1.00800           0
      8746 MEMB     66       POPC     H15B     HL       0.250000       1.00800           0
      8747 MEMB     66       POPC     H15C     HL       0.250000       1.00800           0
      8748 MEMB     66       POPC     C11      CTL2    -0.800000E-01   12.0110           0
      8749 MEMB     66       POPC     H11A     HAL2     0.900000E-01   1.00800           0
      8750 MEMB     66       POPC     H11B     HAL2     0.900000E-01   1.00800           0
      8751 MEMB     66       POPC     P        PL       1.500000       30.9740           0
      8752 MEMB     66       POPC     O13      O2L     -0.780000       15.9994           0
      8753 MEMB     66       POPC     O14      O2L     -0.780000       15.9994           0
      8754 MEMB     66       POPC     O12      OSLP    -0.570000       15.9994           0
      8755 MEMB     66       POPC     O11      OSLP    -0.570000       15.9994           0
      8756 MEMB     66       POPC     C1       CTL2    -0.800000E-01   12.0110           0
      8757 MEMB     66       POPC     HA       HAL2     0.900000E-01   1.00800           0
      8758 MEMB     66       POPC     HB       HAL2     0.900000E-01   1.00800           0
      8759 MEMB     66       POPC     C2       CTL1     0.170000       12.0110           0
      8760 MEMB     66       POPC     HS       HAL1     0.900000E-01   1.00800           0
      8761 MEMB     66       POPC     O21      OSL     -0.490000       15.9994           0
      8762 MEMB     66       POPC     C21      CL       0.900000       12.0110           0
      8763 MEMB     66       POPC     O22      OBL     -0.630000       15.9994           0
      8764 MEMB     66       POPC     C22      CTL2    -0.220000       12.0110           0
      8765 MEMB     66       POPC     H2R      HAL2     0.900000E-01   1.00800           0
      8766 MEMB     66       POPC     H2S      HAL2     0.900000E-01   1.00800           0
      8767 MEMB     66       POPC     C3       CTL2     0.800000E-01   12.0110           0
      8768 MEMB     66       POPC     HX       HAL2     0.900000E-01   1.00800           0
      8769 MEMB     66       POPC     HY       HAL2     0.900000E-01   1.00800           0
      8770 MEMB     66       POPC     O31      OSL     -0.490000       15.9994           0
      8771 MEMB     66       POPC     C31      CL       0.900000       12.0110           0
      8772 MEMB     66       POPC     O32      OBL     -0.630000       15.9994           0
      8773 MEMB     66       POPC     C32      CTL2    -0.220000       12.0110           0
      8774 MEMB     66       POPC     H2X      HAL2     0.900000E-01   1.00800           0
      8775 MEMB     66       POPC     H2Y      HAL2     0.900000E-01   1.00800           0
      8776 MEMB     66       POPC     C23      CTL2    -0.180000       12.0110           0
      8777 MEMB     66       POPC     H3R      HAL2     0.900000E-01   1.00800           0
      8778 MEMB     66       POPC     H3S      HAL2     0.900000E-01   1.00800           0
      8779 MEMB     66       POPC     C24      CTL2    -0.180000       12.0110           0
      8780 MEMB     66       POPC     H4R      HAL2     0.900000E-01   1.00800           0
      8781 MEMB     66       POPC     H4S      HAL2     0.900000E-01   1.00800           0
      8782 MEMB     66       POPC     C25      CTL2    -0.180000       12.0110           0
      8783 MEMB     66       POPC     H5R      HAL2     0.900000E-01   1.00800           0
      8784 MEMB     66       POPC     H5S      HAL2     0.900000E-01   1.00800           0
      8785 MEMB     66       POPC     C26      CTL2    -0.180000       12.0110           0
      8786 MEMB     66       POPC     H6R      HAL2     0.900000E-01   1.00800           0
      8787 MEMB     66       POPC     H6S      HAL2     0.900000E-01   1.00800           0
      8788 MEMB     66       POPC     C27      CTL2    -0.180000       12.0110           0
      8789 MEMB     66       POPC     H7R      HAL2     0.900000E-01   1.00800           0
      8790 MEMB     66       POPC     H7S      HAL2     0.900000E-01   1.00800           0
      8791 MEMB     66       POPC     C28      CTL2    -0.180000       12.0110           0
      8792 MEMB     66       POPC     H8R      HAL2     0.900000E-01   1.00800           0
      8793 MEMB     66       POPC     H8S      HAL2     0.900000E-01   1.00800           0
      8794 MEMB     66       POPC     C29      CEL1    -0.150000       12.0110           0
      8795 MEMB     66       POPC     H91      HEL1     0.150000       1.00800           0
      8796 MEMB     66       POPC     C210     CEL1    -0.150000       12.0110           0
      8797 MEMB     66       POPC     H101     HEL1     0.150000       1.00800           0
      8798 MEMB     66       POPC     C211     CTL2    -0.180000       12.0110           0
      8799 MEMB     66       POPC     H11R     HAL2     0.900000E-01   1.00800           0
      8800 MEMB     66       POPC     H11S     HAL2     0.900000E-01   1.00800           0
      8801 MEMB     66       POPC     C212     CTL2    -0.180000       12.0110           0
      8802 MEMB     66       POPC     H12R     HAL2     0.900000E-01   1.00800           0
      8803 MEMB     66       POPC     H12S     HAL2     0.900000E-01   1.00800           0
      8804 MEMB     66       POPC     C213     CTL2    -0.180000       12.0110           0
      8805 MEMB     66       POPC     H13R     HAL2     0.900000E-01   1.00800           0
      8806 MEMB     66       POPC     H13S     HAL2     0.900000E-01   1.00800           0
      8807 MEMB     66       POPC     C214     CTL2    -0.180000       12.0110           0
      8808 MEMB     66       POPC     H14R     HAL2     0.900000E-01   1.00800           0
      8809 MEMB     66       POPC     H14S     HAL2     0.900000E-01   1.00800           0
      8810 MEMB     66       POPC     C215     CTL2    -0.180000       12.0110           0
      8811 MEMB     66       POPC     H15R     HAL2     0.900000E-01   1.00800           0
      8812 MEMB     66       POPC     H15S     HAL2     0.900000E-01   1.00800           0
      8813 MEMB     66       POPC     C216     CTL2    -0.180000       12.0110           0
      8814 MEMB     66       POPC     H16R     HAL2     0.900000E-01   1.00800           0
      8815 MEMB     66       POPC     H16S     HAL2     0.900000E-01   1.00800           0
      8816 MEMB     66       POPC     C217     CTL2    -0.180000       12.0110           0
      8817 MEMB     66       POPC     H17R     HAL2     0.900000E-01   1.00800           0
      8818 MEMB     66       POPC     H17S     HAL2     0.900000E-01   1.00800           0
      8819 MEMB     66       POPC     C218     CTL3    -0.270000       12.0110           0
      8820 MEMB     66       POPC     H18R     HAL3     0.900000E-01   1.00800           0
      8821 MEMB     66       POPC     H18S     HAL3     0.900000E-01   1.00800           0
      8822 MEMB     66       POPC     H18T     HAL3     0.900000E-01   1.00800           0
      8823 MEMB     66       POPC     C33      CTL2    -0.180000       12.0110           0
      8824 MEMB     66       POPC     H3X      HAL2     0.900000E-01   1.00800           0
      8825 MEMB     66       POPC     H3Y      HAL2     0.900000E-01   1.00800           0
      8826 MEMB     66       POPC     C34      CTL2    -0.180000       12.0110           0
      8827 MEMB     66       POPC     H4X      HAL2     0.900000E-01   1.00800           0
      8828 MEMB     66       POPC     H4Y      HAL2     0.900000E-01   1.00800           0
      8829 MEMB     66       POPC     C35      CTL2    -0.180000       12.0110           0
      8830 MEMB     66       POPC     H5X      HAL2     0.900000E-01   1.00800           0
      8831 MEMB     66       POPC     H5Y      HAL2     0.900000E-01   1.00800           0
      8832 MEMB     66       POPC     C36      CTL2    -0.180000       12.0110           0
      8833 MEMB     66       POPC     H6X      HAL2     0.900000E-01   1.00800           0
      8834 MEMB     66       POPC     H6Y      HAL2     0.900000E-01   1.00800           0
      8835 MEMB     66       POPC     C37      CTL2    -0.180000       12.0110           0
      8836 MEMB     66       POPC     H7X      HAL2     0.900000E-01   1.00800           0
      8837 MEMB     66       POPC     H7Y      HAL2     0.900000E-01   1.00800           0
      8838 MEMB     66       POPC     C38      CTL2    -0.180000       12.0110           0
      8839 MEMB     66       POPC     H8X      HAL2     0.900000E-01   1.00800           0
      8840 MEMB     66       POPC     H8Y      HAL2     0.900000E-01   1.00800           0
      8841 MEMB     66       POPC     C39      CTL2    -0.180000       12.0110           0
      8842 MEMB     66       POPC     H9X      HAL2     0.900000E-01   1.00800           0
      8843 MEMB     66       POPC     H9Y      HAL2     0.900000E-01   1.00800           0
      8844 MEMB     66       POPC     C310     CTL2    -0.180000       12.0110           0
      8845 MEMB     66       POPC     H10X     HAL2     0.900000E-01   1.00800           0
      8846 MEMB     66       POPC     H10Y     HAL2     0.900000E-01   1.00800           0
      8847 MEMB     66       POPC     C311     CTL2    -0.180000       12.0110           0
      8848 MEMB     66       POPC     H11X     HAL2     0.900000E-01   1.00800           0
      8849 MEMB     66       POPC     H11Y     HAL2     0.900000E-01   1.00800           0
      8850 MEMB     66       POPC     C312     CTL2    -0.180000       12.0110           0
      8851 MEMB     66       POPC     H12X     HAL2     0.900000E-01   1.00800           0
      8852 MEMB     66       POPC     H12Y     HAL2     0.900000E-01   1.00800           0
      8853 MEMB     66       POPC     C313     CTL2    -0.180000       12.0110           0
      8854 MEMB     66       POPC     H13X     HAL2     0.900000E-01   1.00800           0
      8855 MEMB     66       POPC     H13Y     HAL2     0.900000E-01   1.00800           0
      8856 MEMB     66       POPC     C314     CTL2    -0.180000       12.0110           0
      8857 MEMB     66       POPC     H14X     HAL2     0.900000E-01   1.00800           0
      8858 MEMB     66       POPC     H14Y     HAL2     0.900000E-01   1.00800           0
      8859 MEMB     66       POPC     C315     CTL2    -0.180000       12.0110           0
      8860 MEMB     66       POPC     H15X     HAL2     0.900000E-01   1.00800           0
      8861 MEMB     66       POPC     H15Y     HAL2     0.900000E-01   1.00800           0
      8862 MEMB     66       POPC     C316     CTL3    -0.270000       12.0110           0
      8863 MEMB     66       POPC     H16X     HAL3     0.900000E-01   1.00800           0
      8864 MEMB     66       POPC     H16Y     HAL3     0.900000E-01   1.00800           0
      8865 MEMB     66       POPC     H16Z     HAL3     0.900000E-01   1.00800           0
      8866 MEMB     67       POPC     N        NTL     -0.600000       14.0070           0
      8867 MEMB     67       POPC     C12      CTL2    -0.100000       12.0110           0
      8868 MEMB     67       POPC     H12A     HL       0.250000       1.00800           0
      8869 MEMB     67       POPC     H12B     HL       0.250000       1.00800           0
      8870 MEMB     67       POPC     C13      CTL5    -0.350000       12.0110           0
      8871 MEMB     67       POPC     H13A     HL       0.250000       1.00800           0
      8872 MEMB     67       POPC     H13B     HL       0.250000       1.00800           0
      8873 MEMB     67       POPC     H13C     HL       0.250000       1.00800           0
      8874 MEMB     67       POPC     C14      CTL5    -0.350000       12.0110           0
      8875 MEMB     67       POPC     H14A     HL       0.250000       1.00800           0
      8876 MEMB     67       POPC     H14B     HL       0.250000       1.00800           0
      8877 MEMB     67       POPC     H14C     HL       0.250000       1.00800           0
      8878 MEMB     67       POPC     C15      CTL5    -0.350000       12.0110           0
      8879 MEMB     67       POPC     H15A     HL       0.250000       1.00800           0
      8880 MEMB     67       POPC     H15B     HL       0.250000       1.00800           0
      8881 MEMB     67       POPC     H15C     HL       0.250000       1.00800           0
      8882 MEMB     67       POPC     C11      CTL2    -0.800000E-01   12.0110           0
      8883 MEMB     67       POPC     H11A     HAL2     0.900000E-01   1.00800           0
      8884 MEMB     67       POPC     H11B     HAL2     0.900000E-01   1.00800           0
      8885 MEMB     67       POPC     P        PL       1.500000       30.9740           0
      8886 MEMB     67       POPC     O13      O2L     -0.780000       15.9994           0
      8887 MEMB     67       POPC     O14      O2L     -0.780000       15.9994           0
      8888 MEMB     67       POPC     O12      OSLP    -0.570000       15.9994           0
      8889 MEMB     67       POPC     O11      OSLP    -0.570000       15.9994           0
      8890 MEMB     67       POPC     C1       CTL2    -0.800000E-01   12.0110           0
      8891 MEMB     67       POPC     HA       HAL2     0.900000E-01   1.00800           0
      8892 MEMB     67       POPC     HB       HAL2     0.900000E-01   1.00800           0
      8893 MEMB     67       POPC     C2       CTL1     0.170000       12.0110           0
      8894 MEMB     67       POPC     HS       HAL1     0.900000E-01   1.00800           0
      8895 MEMB     67       POPC     O21      OSL     -0.490000       15.9994           0
      8896 MEMB     67       POPC     C21      CL       0.900000       12.0110           0
      8897 MEMB     67       POPC     O22      OBL     -0.630000       15.9994           0
      8898 MEMB     67       POPC     C22      CTL2    -0.220000       12.0110           0
      8899 MEMB     67       POPC     H2R      HAL2     0.900000E-01   1.00800           0
      8900 MEMB     67       POPC     H2S      HAL2     0.900000E-01   1.00800           0
      8901 MEMB     67       POPC     C3       CTL2     0.800000E-01   12.0110           0
      8902 MEMB     67       POPC     HX       HAL2     0.900000E-01   1.00800           0
      8903 MEMB     67       POPC     HY       HAL2     0.900000E-01   1.00800           0
      8904 MEMB     67       POPC     O31      OSL     -0.490000       15.9994           0
      8905 MEMB     67       POPC     C31      CL       0.900000       12.0110           0
      8906 MEMB     67       POPC     O32      OBL     -0.630000       15.9994           0
      8907 MEMB     67       POPC     C32      CTL2    -0.220000       12.0110           0
      8908 MEMB     67       POPC     H2X      HAL2     0.900000E-01   1.00800           0
      8909 MEMB     67       POPC     H2Y      HAL2     0.900000E-01   1.00800           0
      8910 MEMB     67       POPC     C23      CTL2    -0.180000       12.0110           0
      8911 MEMB     67       POPC     H3R      HAL2     0.900000E-01   1.00800           0
      8912 MEMB     67       POPC     H3S      HAL2     0.900000E-01   1.00800           0
      8913 MEMB     67       POPC     C24      CTL2    -0.180000       12.0110           0
      8914 MEMB     67       POPC     H4R      HAL2     0.900000E-01   1.00800           0
      8915 MEMB     67       POPC     H4S      HAL2     0.900000E-01   1.00800           0
      8916 MEMB     67       POPC     C25      CTL2    -0.180000       12.0110           0
      8917 MEMB     67       POPC     H5R      HAL2     0.900000E-01   1.00800           0
      8918 MEMB     67       POPC     H5S      HAL2     0.900000E-01   1.00800           0
      8919 MEMB     67       POPC     C26      CTL2    -0.180000       12.0110           0
      8920 MEMB     67       POPC     H6R      HAL2     0.900000E-01   1.00800           0
      8921 MEMB     67       POPC     H6S      HAL2     0.900000E-01   1.00800           0
      8922 MEMB     67       POPC     C27      CTL2    -0.180000       12.0110           0
      8923 MEMB     67       POPC     H7R      HAL2     0.900000E-01   1.00800           0
      8924 MEMB     67       POPC     H7S      HAL2     0.900000E-01   1.00800           0
      8925 MEMB     67       POPC     C28      CTL2    -0.180000       12.0110           0
      8926 MEMB     67       POPC     H8R      HAL2     0.900000E-01   1.00800           0
      8927 MEMB     67       POPC     H8S      HAL2     0.900000E-01   1.00800           0
      8928 MEMB     67       POPC     C29      CEL1    -0.150000       12.0110           0
      8929 MEMB     67       POPC     H91      HEL1     0.150000       1.00800           0
      8930 MEMB     67       POPC     C210     CEL1    -0.150000       12.0110           0
      8931 MEMB     67       POPC     H101     HEL1     0.150000       1.00800           0
      8932 MEMB     67       POPC     C211     CTL2    -0.180000       12.0110           0
      8933 MEMB     67       POPC     H11R     HAL2     0.900000E-01   1.00800           0
      8934 MEMB     67       POPC     H11S     HAL2     0.900000E-01   1.00800           0
      8935 MEMB     67       POPC     C212     CTL2    -0.180000       12.0110           0
      8936 MEMB     67       POPC     H12R     HAL2     0.900000E-01   1.00800           0
      8937 MEMB     67       POPC     H12S     HAL2     0.900000E-01   1.00800           0
      8938 MEMB     67       POPC     C213     CTL2    -0.180000       12.0110           0
      8939 MEMB     67       POPC     H13R     HAL2     0.900000E-01   1.00800           0
      8940 MEMB     67       POPC     H13S     HAL2     0.900000E-01   1.00800           0
      8941 MEMB     67       POPC     C214     CTL2    -0.180000       12.0110           0
      8942 MEMB     67       POPC     H14R     HAL2     0.900000E-01   1.00800           0
      8943 MEMB     67       POPC     H14S     HAL2     0.900000E-01   1.00800           0
      8944 MEMB     67       POPC     C215     CTL2    -0.180000       12.0110           0
      8945 MEMB     67       POPC     H15R     HAL2     0.900000E-01   1.00800           0
      8946 MEMB     67       POPC     H15S     HAL2     0.900000E-01   1.00800           0
      8947 MEMB     67       POPC     C216     CTL2    -0.180000       12.0110           0
      8948 MEMB     67       POPC     H16R     HAL2     0.900000E-01   1.00800           0
      8949 MEMB     67       POPC     H16S     HAL2     0.900000E-01   1.00800           0
      8950 MEMB     67       POPC     C217     CTL2    -0.180000       12.0110           0
      8951 MEMB     67       POPC     H17R     HAL2     0.900000E-01   1.00800           0
      8952 MEMB     67       POPC     H17S     HAL2     0.900000E-01   1.00800           0
      8953 MEMB     67       POPC     C218     CTL3    -0.270000       12.0110           0
      8954 MEMB     67       POPC     H18R     HAL3     0.900000E-01   1.00800           0
      8955 MEMB     67       POPC     H18S     HAL3     0.900000E-01   1.00800           0
      8956 MEMB     67       POPC     H18T     HAL3     0.900000E-01   1.00800           0
      8957 MEMB     67       POPC     C33      CTL2    -0.180000       12.0110           0
      8958 MEMB     67       POPC     H3X      HAL2     0.900000E-01   1.00800           0
      8959 MEMB     67       POPC     H3Y      HAL2     0.900000E-01   1.00800           0
      8960 MEMB     67       POPC     C34      CTL2    -0.180000       12.0110           0
      8961 MEMB     67       POPC     H4X      HAL2     0.900000E-01   1.00800           0
      8962 MEMB     67       POPC     H4Y      HAL2     0.900000E-01   1.00800           0
      8963 MEMB     67       POPC     C35      CTL2    -0.180000       12.0110           0
      8964 MEMB     67       POPC     H5X      HAL2     0.900000E-01   1.00800           0
      8965 MEMB     67       POPC     H5Y      HAL2     0.900000E-01   1.00800           0
      8966 MEMB     67       POPC     C36      CTL2    -0.180000       12.0110           0
      8967 MEMB     67       POPC     H6X      HAL2     0.900000E-01   1.00800           0
      8968 MEMB     67       POPC     H6Y      HAL2     0.900000E-01   1.00800           0
      8969 MEMB     67       POPC     C37      CTL2    -0.180000       12.0110           0
      8970 MEMB     67       POPC     H7X      HAL2     0.900000E-01   1.00800           0
      8971 MEMB     67       POPC     H7Y      HAL2     0.900000E-01   1.00800           0
      8972 MEMB     67       POPC     C38      CTL2    -0.180000       12.0110           0
      8973 MEMB     67       POPC     H8X      HAL2     0.900000E-01   1.00800           0
      8974 MEMB     67       POPC     H8Y      HAL2     0.900000E-01   1.00800           0
      8975 MEMB     67       POPC     C39      CTL2    -0.180000       12.0110           0
      8976 MEMB     67       POPC     H9X      HAL2     0.900000E-01   1.00800           0
      8977 MEMB     67       POPC     H9Y      HAL2     0.900000E-01   1.00800           0
      8978 MEMB     67       POPC     C310     CTL2    -0.180000       12.0110           0
      8979 MEMB     67       POPC     H10X     HAL2     0.900000E-01   1.00800           0
      8980 MEMB     67       POPC     H10Y     HAL2     0.900000E-01   1.00800           0
      8981 MEMB     67       POPC     C311     CTL2    -0.180000       12.0110           0
      8982 MEMB     67       POPC     H11X     HAL2     0.900000E-01   1.00800           0
      8983 MEMB     67       POPC     H11Y     HAL2     0.900000E-01   1.00800           0
      8984 MEMB     67       POPC     C312     CTL2    -0.180000       12.0110           0
      8985 MEMB     67       POPC     H12X     HAL2     0.900000E-01   1.00800           0
      8986 MEMB     67       POPC     H12Y     HAL2     0.900000E-01   1.00800           0
      8987 MEMB     67       POPC     C313     CTL2    -0.180000       12.0110           0
      8988 MEMB     67       POPC     H13X     HAL2     0.900000E-01   1.00800           0
      8989 MEMB     67       POPC     H13Y     HAL2     0.900000E-01   1.00800           0
      8990 MEMB     67       POPC     C314     CTL2    -0.180000       12.0110           0
      8991 MEMB     67       POPC     H14X     HAL2     0.900000E-01   1.00800           0
      8992 MEMB     67       POPC     H14Y     HAL2     0.900000E-01   1.00800           0
      8993 MEMB     67       POPC     C315     CTL2    -0.180000       12.0110           0
      8994 MEMB     67       POPC     H15X     HAL2     0.900000E-01   1.00800           0
      8995 MEMB     67       POPC     H15Y     HAL2     0.900000E-01   1.00800           0
      8996 MEMB     67       POPC     C316     CTL3    -0.270000       12.0110           0
      8997 MEMB     67       POPC     H16X     HAL3     0.900000E-01   1.00800           0
      8998 MEMB     67       POPC     H16Y     HAL3     0.900000E-01   1.00800           0
      8999 MEMB     67       POPC     H16Z     HAL3     0.900000E-01   1.00800           0
      9000 MEMB     68       POPS     N        NH3L    -0.300000       14.0070           0
      9001 MEMB     68       POPS     HN1      HCL      0.330000       1.00800           0
      9002 MEMB     68       POPS     HN2      HCL      0.330000       1.00800           0
      9003 MEMB     68       POPS     HN3      HCL      0.330000       1.00800           0
      9004 MEMB     68       POPS     C12      CTL1     0.210000       12.0110           0
      9005 MEMB     68       POPS     H12A     HBL      0.100000       1.00800           0
      9006 MEMB     68       POPS     C13      CCL      0.340000       12.0110           0
      9007 MEMB     68       POPS     O13A     OCL     -0.670000       15.9994           0
      9008 MEMB     68       POPS     O13B     OCL     -0.670000       15.9994           0
      9009 MEMB     68       POPS     C11      CTL2    -0.800000E-01   12.0110           0
      9010 MEMB     68       POPS     H11A     HAL2     0.900000E-01   1.00800           0
      9011 MEMB     68       POPS     H11B     HAL2     0.900000E-01   1.00800           0
      9012 MEMB     68       POPS     P        PL       1.500000       30.9740           0
      9013 MEMB     68       POPS     O13      O2L     -0.780000       15.9994           0
      9014 MEMB     68       POPS     O14      O2L     -0.780000       15.9994           0
      9015 MEMB     68       POPS     O12      OSLP    -0.570000       15.9994           0
      9016 MEMB     68       POPS     O11      OSLP    -0.570000       15.9994           0
      9017 MEMB     68       POPS     C1       CTL2    -0.800000E-01   12.0110           0
      9018 MEMB     68       POPS     HA       HAL2     0.900000E-01   1.00800           0
      9019 MEMB     68       POPS     HB       HAL2     0.900000E-01   1.00800           0
      9020 MEMB     68       POPS     C2       CTL1     0.170000       12.0110           0
      9021 MEMB     68       POPS     HS       HAL1     0.900000E-01   1.00800           0
      9022 MEMB     68       POPS     O21      OSL     -0.490000       15.9994           0
      9023 MEMB     68       POPS     C21      CL       0.900000       12.0110           0
      9024 MEMB     68       POPS     O22      OBL     -0.630000       15.9994           0
      9025 MEMB     68       POPS     C22      CTL2    -0.220000       12.0110           0
      9026 MEMB     68       POPS     H2R      HAL2     0.900000E-01   1.00800           0
      9027 MEMB     68       POPS     H2S      HAL2     0.900000E-01   1.00800           0
      9028 MEMB     68       POPS     C3       CTL2     0.800000E-01   12.0110           0
      9029 MEMB     68       POPS     HX       HAL2     0.900000E-01   1.00800           0
      9030 MEMB     68       POPS     HY       HAL2     0.900000E-01   1.00800           0
      9031 MEMB     68       POPS     O31      OSL     -0.490000       15.9994           0
      9032 MEMB     68       POPS     C31      CL       0.900000       12.0110           0
      9033 MEMB     68       POPS     O32      OBL     -0.630000       15.9994           0
      9034 MEMB     68       POPS     C32      CTL2    -0.220000       12.0110           0
      9035 MEMB     68       POPS     H2X      HAL2     0.900000E-01   1.00800           0
      9036 MEMB     68       POPS     H2Y      HAL2     0.900000E-01   1.00800           0
      9037 MEMB     68       POPS     C23      CTL2    -0.180000       12.0110           0
      9038 MEMB     68       POPS     H3R      HAL2     0.900000E-01   1.00800           0
      9039 MEMB     68       POPS     H3S      HAL2     0.900000E-01   1.00800           0
      9040 MEMB     68       POPS     C24      CTL2    -0.180000       12.0110           0
      9041 MEMB     68       POPS     H4R      HAL2     0.900000E-01   1.00800           0
      9042 MEMB     68       POPS     H4S      HAL2     0.900000E-01   1.00800           0
      9043 MEMB     68       POPS     C25      CTL2    -0.180000       12.0110           0
      9044 MEMB     68       POPS     H5R      HAL2     0.900000E-01   1.00800           0
      9045 MEMB     68       POPS     H5S      HAL2     0.900000E-01   1.00800           0
      9046 MEMB     68       POPS     C26      CTL2    -0.180000       12.0110           0
      9047 MEMB     68       POPS     H6R      HAL2     0.900000E-01   1.00800           0
      9048 MEMB     68       POPS     H6S      HAL2     0.900000E-01   1.00800           0
      9049 MEMB     68       POPS     C27      CTL2    -0.180000       12.0110           0
      9050 MEMB     68       POPS     H7R      HAL2     0.900000E-01   1.00800           0
      9051 MEMB     68       POPS     H7S      HAL2     0.900000E-01   1.00800           0
      9052 MEMB     68       POPS     C28      CTL2    -0.180000       12.0110           0
      9053 MEMB     68       POPS     H8R      HAL2     0.900000E-01   1.00800           0
      9054 MEMB     68       POPS     H8S      HAL2     0.900000E-01   1.00800           0
      9055 MEMB     68       POPS     C29      CEL1    -0.150000       12.0110           0
      9056 MEMB     68       POPS     H91      HEL1     0.150000       1.00800           0
      9057 MEMB     68       POPS     C210     CEL1    -0.150000       12.0110           0
      9058 MEMB     68       POPS     H101     HEL1     0.150000       1.00800           0
      9059 MEMB     68       POPS     C211     CTL2    -0.180000       12.0110           0
      9060 MEMB     68       POPS     H11R     HAL2     0.900000E-01   1.00800           0
      9061 MEMB     68       POPS     H11S     HAL2     0.900000E-01   1.00800           0
      9062 MEMB     68       POPS     C212     CTL2    -0.180000       12.0110           0
      9063 MEMB     68       POPS     H12R     HAL2     0.900000E-01   1.00800           0
      9064 MEMB     68       POPS     H12S     HAL2     0.900000E-01   1.00800           0
      9065 MEMB     68       POPS     C213     CTL2    -0.180000       12.0110           0
      9066 MEMB     68       POPS     H13R     HAL2     0.900000E-01   1.00800           0
      9067 MEMB     68       POPS     H13S     HAL2     0.900000E-01   1.00800           0
      9068 MEMB     68       POPS     C214     CTL2    -0.180000       12.0110           0
      9069 MEMB     68       POPS     H14R     HAL2     0.900000E-01   1.00800           0
      9070 MEMB     68       POPS     H14S     HAL2     0.900000E-01   1.00800           0
      9071 MEMB     68       POPS     C215     CTL2    -0.180000       12.0110           0
      9072 MEMB     68       POPS     H15R     HAL2     0.900000E-01   1.00800           0
      9073 MEMB     68       POPS     H15S     HAL2     0.900000E-01   1.00800           0
      9074 MEMB     68       POPS     C216     CTL2    -0.180000       12.0110           0
      9075 MEMB     68       POPS     H16R     HAL2     0.900000E-01   1.00800           0
      9076 MEMB     68       POPS     H16S     HAL2     0.900000E-01   1.00800           0
      9077 MEMB     68       POPS     C217     CTL2    -0.180000       12.0110           0
      9078 MEMB     68       POPS     H17R     HAL2     0.900000E-01   1.00800           0
      9079 MEMB     68       POPS     H17S     HAL2     0.900000E-01   1.00800           0
      9080 MEMB     68       POPS     C218     CTL3    -0.270000       12.0110           0
      9081 MEMB     68       POPS     H18R     HAL3     0.900000E-01   1.00800           0
      9082 MEMB     68       POPS     H18S     HAL3     0.900000E-01   1.00800           0
      9083 MEMB     68       POPS     H18T     HAL3     0.900000E-01   1.00800           0
      9084 MEMB     68       POPS     C33      CTL2    -0.180000       12.0110           0
      9085 MEMB     68       POPS     H3X      HAL2     0.900000E-01   1.00800           0
      9086 MEMB     68       POPS     H3Y      HAL2     0.900000E-01   1.00800           0
      9087 MEMB     68       POPS     C34      CTL2    -0.180000       12.0110           0
      9088 MEMB     68       POPS     H4X      HAL2     0.900000E-01   1.00800           0
      9089 MEMB     68       POPS     H4Y      HAL2     0.900000E-01   1.00800           0
      9090 MEMB     68       POPS     C35      CTL2    -0.180000       12.0110           0
      9091 MEMB     68       POPS     H5X      HAL2     0.900000E-01   1.00800           0
      9092 MEMB     68       POPS     H5Y      HAL2     0.900000E-01   1.00800           0
      9093 MEMB     68       POPS     C36      CTL2    -0.180000       12.0110           0
      9094 MEMB     68       POPS     H6X      HAL2     0.900000E-01   1.00800           0
      9095 MEMB     68       POPS     H6Y      HAL2     0.900000E-01   1.00800           0
      9096 MEMB     68       POPS     C37      CTL2    -0.180000       12.0110           0
      9097 MEMB     68       POPS     H7X      HAL2     0.900000E-01   1.00800           0
      9098 MEMB     68       POPS     H7Y      HAL2     0.900000E-01   1.00800           0
      9099 MEMB     68       POPS     C38      CTL2    -0.180000       12.0110           0
      9100 MEMB     68       POPS     H8X      HAL2     0.900000E-01   1.00800           0
      9101 MEMB     68       POPS     H8Y      HAL2     0.900000E-01   1.00800           0
      9102 MEMB     68       POPS     C39      CTL2    -0.180000       12.0110           0
      9103 MEMB     68       POPS     H9X      HAL2     0.900000E-01   1.00800           0
      9104 MEMB     68       POPS     H9Y      HAL2     0.900000E-01   1.00800           0
      9105 MEMB     68       POPS     C310     CTL2    -0.180000       12.0110           0
      9106 MEMB     68       POPS     H10X     HAL2     0.900000E-01   1.00800           0
      9107 MEMB     68       POPS     H10Y     HAL2     0.900000E-01   1.00800           0
      9108 MEMB     68       POPS     C311     CTL2    -0.180000       12.0110           0
      9109 MEMB     68       POPS     H11X     HAL2     0.900000E-01   1.00800           0
      9110 MEMB     68       POPS     H11Y     HAL2     0.900000E-01   1.00800           0
      9111 MEMB     68       POPS     C312     CTL2    -0.180000       12.0110           0
      9112 MEMB     68       POPS     H12X     HAL2     0.900000E-01   1.00800           0
      9113 MEMB     68       POPS     H12Y     HAL2     0.900000E-01   1.00800           0
      9114 MEMB     68       POPS     C313     CTL2    -0.180000       12.0110           0
      9115 MEMB     68       POPS     H13X     HAL2     0.900000E-01   1.00800           0
      9116 MEMB     68       POPS     H13Y     HAL2     0.900000E-01   1.00800           0
      9117 MEMB     68       POPS     C314     CTL2    -0.180000       12.0110           0
      9118 MEMB     68       POPS     H14X     HAL2     0.900000E-01   1.00800           0
      9119 MEMB     68       POPS     H14Y     HAL2     0.900000E-01   1.00800           0
      9120 MEMB     68       POPS     C315     CTL2    -0.180000       12.0110           0
      9121 MEMB     68       POPS     H15X     HAL2     0.900000E-01   1.00800           0
      9122 MEMB     68       POPS     H15Y     HAL2     0.900000E-01   1.00800           0
      9123 MEMB     68       POPS     C316     CTL3    -0.270000       12.0110           0
      9124 MEMB     68       POPS     H16X     HAL3     0.900000E-01   1.00800           0
      9125 MEMB     68       POPS     H16Y     HAL3     0.900000E-01   1.00800           0
      9126 MEMB     68       POPS     H16Z     HAL3     0.900000E-01   1.00800           0
      9127 MEMB     69       POPS     N        NH3L    -0.300000       14.0070           0
      9128 MEMB     69       POPS     HN1      HCL      0.330000       1.00800           0
      9129 MEMB     69       POPS     HN2      HCL      0.330000       1.00800           0
      9130 MEMB     69       POPS     HN3      HCL      0.330000       1.00800           0
      9131 MEMB     69       POPS     C12      CTL1     0.210000       12.0110           0
      9132 MEMB     69       POPS     H12A     HBL      0.100000       1.00800           0
      9133 MEMB     69       POPS     C13      CCL      0.340000       12.0110           0
      9134 MEMB     69       POPS     O13A     OCL     -0.670000       15.9994           0
      9135 MEMB     69       POPS     O13B     OCL     -0.670000       15.9994           0
      9136 MEMB     69       POPS     C11      CTL2    -0.800000E-01   12.0110           0
      9137 MEMB     69       POPS     H11A     HAL2     0.900000E-01   1.00800           0
      9138 MEMB     69       POPS     H11B     HAL2     0.900000E-01   1.00800           0
      9139 MEMB     69       POPS     P        PL       1.500000       30.9740           0
      9140 MEMB     69       POPS     O13      O2L     -0.780000       15.9994           0
      9141 MEMB     69       POPS     O14      O2L     -0.780000       15.9994           0
      9142 MEMB     69       POPS     O12      OSLP    -0.570000       15.9994           0
      9143 MEMB     69       POPS     O11      OSLP    -0.570000       15.9994           0
      9144 MEMB     69       POPS     C1       CTL2    -0.800000E-01   12.0110           0
      9145 MEMB     69       POPS     HA       HAL2     0.900000E-01   1.00800           0
      9146 MEMB     69       POPS     HB       HAL2     0.900000E-01   1.00800           0
      9147 MEMB     69       POPS     C2       CTL1     0.170000       12.0110           0
      9148 MEMB     69       POPS     HS       HAL1     0.900000E-01   1.00800           0
      9149 MEMB     69       POPS     O21      OSL     -0.490000       15.9994           0
      9150 MEMB     69       POPS     C21      CL       0.900000       12.0110           0
      9151 MEMB     69       POPS     O22      OBL     -0.630000       15.9994           0
      9152 MEMB     69       POPS     C22      CTL2    -0.220000       12.0110           0
      9153 MEMB     69       POPS     H2R      HAL2     0.900000E-01   1.00800           0
      9154 MEMB     69       POPS     H2S      HAL2     0.900000E-01   1.00800           0
      9155 MEMB     69       POPS     C3       CTL2     0.800000E-01   12.0110           0
      9156 MEMB     69       POPS     HX       HAL2     0.900000E-01   1.00800           0
      9157 MEMB     69       POPS     HY       HAL2     0.900000E-01   1.00800           0
      9158 MEMB     69       POPS     O31      OSL     -0.490000       15.9994           0
      9159 MEMB     69       POPS     C31      CL       0.900000       12.0110           0
      9160 MEMB     69       POPS     O32      OBL     -0.630000       15.9994           0
      9161 MEMB     69       POPS     C32      CTL2    -0.220000       12.0110           0
      9162 MEMB     69       POPS     H2X      HAL2     0.900000E-01   1.00800           0
      9163 MEMB     69       POPS     H2Y      HAL2     0.900000E-01   1.00800           0
      9164 MEMB     69       POPS     C23      CTL2    -0.180000       12.0110           0
      9165 MEMB     69       POPS     H3R      HAL2     0.900000E-01   1.00800           0
      9166 MEMB     69       POPS     H3S      HAL2     0.900000E-01   1.00800           0
      9167 MEMB     69       POPS     C24      CTL2    -0.180000       12.0110           0
      9168 MEMB     69       POPS     H4R      HAL2     0.900000E-01   1.00800           0
      9169 MEMB     69       POPS     H4S      HAL2     0.900000E-01   1.00800           0
      9170 MEMB     69       POPS     C25      CTL2    -0.180000       12.0110           0
      9171 MEMB     69       POPS     H5R      HAL2     0.900000E-01   1.00800           0
      9172 MEMB     69       POPS     H5S      HAL2     0.900000E-01   1.00800           0
      9173 MEMB     69       POPS     C26      CTL2    -0.180000       12.0110           0
      9174 MEMB     69       POPS     H6R      HAL2     0.900000E-01   1.00800           0
      9175 MEMB     69       POPS     H6S      HAL2     0.900000E-01   1.00800           0
      9176 MEMB     69       POPS     C27      CTL2    -0.180000       12.0110           0
      9177 MEMB     69       POPS     H7R      HAL2     0.900000E-01   1.00800           0
      9178 MEMB     69       POPS     H7S      HAL2     0.900000E-01   1.00800           0
      9179 MEMB     69       POPS     C28      CTL2    -0.180000       12.0110           0
      9180 MEMB     69       POPS     H8R      HAL2     0.900000E-01   1.00800           0
      9181 MEMB     69       POPS     H8S      HAL2     0.900000E-01   1.00800           0
      9182 MEMB     69       POPS     C29      CEL1    -0.150000       12.0110           0
      9183 MEMB     69       POPS     H91      HEL1     0.150000       1.00800           0
      9184 MEMB     69       POPS     C210     CEL1    -0.150000       12.0110           0
      9185 MEMB     69       POPS     H101     HEL1     0.150000       1.00800           0
      9186 MEMB     69       POPS     C211     CTL2    -0.180000       12.0110           0
      9187 MEMB     69       POPS     H11R     HAL2     0.900000E-01   1.00800           0
      9188 MEMB     69       POPS     H11S     HAL2     0.900000E-01   1.00800           0
      9189 MEMB     69       POPS     C212     CTL2    -0.180000       12.0110           0
      9190 MEMB     69       POPS     H12R     HAL2     0.900000E-01   1.00800           0
      9191 MEMB     69       POPS     H12S     HAL2     0.900000E-01   1.00800           0
      9192 MEMB     69       POPS     C213     CTL2    -0.180000       12.0110           0
      9193 MEMB     69       POPS     H13R     HAL2     0.900000E-01   1.00800           0
      9194 MEMB     69       POPS     H13S     HAL2     0.900000E-01   1.00800           0
      9195 MEMB     69       POPS     C214     CTL2    -0.180000       12.0110           0
      9196 MEMB     69       POPS     H14R     HAL2     0.900000E-01   1.00800           0
      9197 MEMB     69       POPS     H14S     HAL2     0.900000E-01   1.00800           0
      9198 MEMB     69       POPS     C215     CTL2    -0.180000       12.0110           0
      9199 MEMB     69       POPS     H15R     HAL2     0.900000E-01   1.00800           0
      9200 MEMB     69       POPS     H15S     HAL2     0.900000E-01   1.00800           0
      9201 MEMB     69       POPS     C216     CTL2    -0.180000       12.0110           0
      9202 MEMB     69       POPS     H16R     HAL2     0.900000E-01   1.00800           0
      9203 MEMB     69       POPS     H16S     HAL2     0.900000E-01   1.00800           0
      9204 MEMB     69       POPS     C217     CTL2    -0.180000       12.0110           0
      9205 MEMB     69       POPS     H17R     HAL2     0.900000E-01   1.00800           0
      9206 MEMB     69       POPS     H17S     HAL2     0.900000E-01   1.00800           0
      9207 MEMB     69       POPS     C218     CTL3    -0.270000       12.0110           0
      9208 MEMB     69       POPS     H18R     HAL3     0.900000E-01   1.00800           0
      9209 MEMB     69       POPS     H18S     HAL3     0.900000E-01   1.00800           0
      9210 MEMB     69       POPS     H18T     HAL3     0.900000E-01   1.00800           0
      9211 MEMB     69       POPS     C33      CTL2    -0.180000       12.0110           0
      9212 MEMB     69       POPS     H3X      HAL2     0.900000E-01   1.00800           0
      9213 MEMB     69       POPS     H3Y      HAL2     0.900000E-01   1.00800           0
      9214 MEMB     69       POPS     C34      CTL2    -0.180000       12.0110           0
      9215 MEMB     69       POPS     H4X      HAL2     0.900000E-01   1.00800           0
      9216 MEMB     69       POPS     H4Y      HAL2     0.900000E-01   1.00800           0
      9217 MEMB     69       POPS     C35      CTL2    -0.180000       12.0110           0
      9218 MEMB     69       POPS     H5X      HAL2     0.900000E-01   1.00800           0
      9219 MEMB     69       POPS     H5Y      HAL2     0.900000E-01   1.00800           0
      9220 MEMB     69       POPS     C36      CTL2    -0.180000       12.0110           0
      9221 MEMB     69       POPS     H6X      HAL2     0.900000E-01   1.00800           0
      9222 MEMB     69       POPS     H6Y      HAL2     0.900000E-01   1.00800           0
      9223 MEMB     69       POPS     C37      CTL2    -0.180000       12.0110           0
      9224 MEMB     69       POPS     H7X      HAL2     0.900000E-01   1.00800           0
      9225 MEMB     69       POPS     H7Y      HAL2     0.900000E-01   1.00800           0
      9226 MEMB     69       POPS     C38      CTL2    -0.180000       12.0110           0
      9227 MEMB     69       POPS     H8X      HAL2     0.900000E-01   1.00800           0
      9228 MEMB     69       POPS     H8Y      HAL2     0.900000E-01   1.00800           0
      9229 MEMB     69       POPS     C39      CTL2    -0.180000       12.0110           0
      9230 MEMB     69       POPS     H9X      HAL2     0.900000E-01   1.00800           0
      9231 MEMB     69       POPS     H9Y      HAL2     0.900000E-01   1.00800           0
      9232 MEMB     69       POPS     C310     CTL2    -0.180000       12.0110           0
      9233 MEMB     69       POPS     H10X     HAL2     0.900000E-01   1.00800           0
      9234 MEMB     69       POPS     H10Y     HAL2     0.900000E-01   1.00800           0
      9235 MEMB     69       POPS     C311     CTL2    -0.180000       12.0110           0
      9236 MEMB     69       POPS     H11X     HAL2     0.900000E-01   1.00800           0
      9237 MEMB     69       POPS     H11Y     HAL2     0.900000E-01   1.00800           0
      9238 MEMB     69       POPS     C312     CTL2    -0.180000       12.0110           0
      9239 MEMB     69       POPS     H12X     HAL2     0.900000E-01   1.00800           0
      9240 MEMB     69       POPS     H12Y     HAL2     0.900000E-01   1.00800           0
      9241 MEMB     69       POPS     C313     CTL2    -0.180000       12.0110           0
      9242 MEMB     69       POPS     H13X     HAL2     0.900000E-01   1.00800           0
      9243 MEMB     69       POPS     H13Y     HAL2     0.900000E-01   1.00800           0
      9244 MEMB     69       POPS     C314     CTL2    -0.180000       12.0110           0
      9245 MEMB     69       POPS     H14X     HAL2     0.900000E-01   1.00800           0
      9246 MEMB     69       POPS     H14Y     HAL2     0.900000E-01   1.00800           0
      9247 MEMB     69       POPS     C315     CTL2    -0.180000       12.0110           0
      9248 MEMB     69       POPS     H15X     HAL2     0.900000E-01   1.00800           0
      9249 MEMB     69       POPS     H15Y     HAL2     0.900000E-01   1.00800           0
      9250 MEMB     69       POPS     C316     CTL3    -0.270000       12.0110           0
      9251 MEMB     69       POPS     H16X     HAL3     0.900000E-01   1.00800           0
      9252 MEMB     69       POPS     H16Y     HAL3     0.900000E-01   1.00800           0
      9253 MEMB     69       POPS     H16Z     HAL3     0.900000E-01   1.00800           0
      9254 MEMB     70       POPC     N        NTL     -0.600000       14.0070           0
      9255 MEMB     70       POPC     C12      CTL2    -0.100000       12.0110           0
      9256 MEMB     70       POPC     H12A     HL       0.250000       1.00800           0
      9257 MEMB     70       POPC     H12B     HL       0.250000       1.00800           0
      9258 MEMB     70       POPC     C13      CTL5    -0.350000       12.0110           0
      9259 MEMB     70       POPC     H13A     HL       0.250000       1.00800           0
      9260 MEMB     70       POPC     H13B     HL       0.250000       1.00800           0
      9261 MEMB     70       POPC     H13C     HL       0.250000       1.00800           0
      9262 MEMB     70       POPC     C14      CTL5    -0.350000       12.0110           0
      9263 MEMB     70       POPC     H14A     HL       0.250000       1.00800           0
      9264 MEMB     70       POPC     H14B     HL       0.250000       1.00800           0
      9265 MEMB     70       POPC     H14C     HL       0.250000       1.00800           0
      9266 MEMB     70       POPC     C15      CTL5    -0.350000       12.0110           0
      9267 MEMB     70       POPC     H15A     HL       0.250000       1.00800           0
      9268 MEMB     70       POPC     H15B     HL       0.250000       1.00800           0
      9269 MEMB     70       POPC     H15C     HL       0.250000       1.00800           0
      9270 MEMB     70       POPC     C11      CTL2    -0.800000E-01   12.0110           0
      9271 MEMB     70       POPC     H11A     HAL2     0.900000E-01   1.00800           0
      9272 MEMB     70       POPC     H11B     HAL2     0.900000E-01   1.00800           0
      9273 MEMB     70       POPC     P        PL       1.500000       30.9740           0
      9274 MEMB     70       POPC     O13      O2L     -0.780000       15.9994           0
      9275 MEMB     70       POPC     O14      O2L     -0.780000       15.9994           0
      9276 MEMB     70       POPC     O12      OSLP    -0.570000       15.9994           0
      9277 MEMB     70       POPC     O11      OSLP    -0.570000       15.9994           0
      9278 MEMB     70       POPC     C1       CTL2    -0.800000E-01   12.0110           0
      9279 MEMB     70       POPC     HA       HAL2     0.900000E-01   1.00800           0
      9280 MEMB     70       POPC     HB       HAL2     0.900000E-01   1.00800           0
      9281 MEMB     70       POPC     C2       CTL1     0.170000       12.0110           0
      9282 MEMB     70       POPC     HS       HAL1     0.900000E-01   1.00800           0
      9283 MEMB     70       POPC     O21      OSL     -0.490000       15.9994           0
      9284 MEMB     70       POPC     C21      CL       0.900000       12.0110           0
      9285 MEMB     70       POPC     O22      OBL     -0.630000       15.9994           0
      9286 MEMB     70       POPC     C22      CTL2    -0.220000       12.0110           0
      9287 MEMB     70       POPC     H2R      HAL2     0.900000E-01   1.00800           0
      9288 MEMB     70       POPC     H2S      HAL2     0.900000E-01   1.00800           0
      9289 MEMB     70       POPC     C3       CTL2     0.800000E-01   12.0110           0
      9290 MEMB     70       POPC     HX       HAL2     0.900000E-01   1.00800           0
      9291 MEMB     70       POPC     HY       HAL2     0.900000E-01   1.00800           0
      9292 MEMB     70       POPC     O31      OSL     -0.490000       15.9994           0
      9293 MEMB     70       POPC     C31      CL       0.900000       12.0110           0
      9294 MEMB     70       POPC     O32      OBL     -0.630000       15.9994           0
      9295 MEMB     70       POPC     C32      CTL2    -0.220000       12.0110           0
      9296 MEMB     70       POPC     H2X      HAL2     0.900000E-01   1.00800           0
      9297 MEMB     70       POPC     H2Y      HAL2     0.900000E-01   1.00800           0
      9298 MEMB     70       POPC     C23      CTL2    -0.180000       12.0110           0
      9299 MEMB     70       POPC     H3R      HAL2     0.900000E-01   1.00800           0
      9300 MEMB     70       POPC     H3S      HAL2     0.900000E-01   1.00800           0
      9301 MEMB     70       POPC     C24      CTL2    -0.180000       12.0110           0
      9302 MEMB     70       POPC     H4R      HAL2     0.900000E-01   1.00800           0
      9303 MEMB     70       POPC     H4S      HAL2     0.900000E-01   1.00800           0
      9304 MEMB     70       POPC     C25      CTL2    -0.180000       12.0110           0
      9305 MEMB     70       POPC     H5R      HAL2     0.900000E-01   1.00800           0
      9306 MEMB     70       POPC     H5S      HAL2     0.900000E-01   1.00800           0
      9307 MEMB     70       POPC     C26      CTL2    -0.180000       12.0110           0
      9308 MEMB     70       POPC     H6R      HAL2     0.900000E-01   1.00800           0
      9309 MEMB     70       POPC     H6S      HAL2     0.900000E-01   1.00800           0
      9310 MEMB     70       POPC     C27      CTL2    -0.180000       12.0110           0
      9311 MEMB     70       POPC     H7R      HAL2     0.900000E-01   1.00800           0
      9312 MEMB     70       POPC     H7S      HAL2     0.900000E-01   1.00800           0
      9313 MEMB     70       POPC     C28      CTL2    -0.180000       12.0110           0
      9314 MEMB     70       POPC     H8R      HAL2     0.900000E-01   1.00800           0
      9315 MEMB     70       POPC     H8S      HAL2     0.900000E-01   1.00800           0
      9316 MEMB     70       POPC     C29      CEL1    -0.150000       12.0110           0
      9317 MEMB     70       POPC     H91      HEL1     0.150000       1.00800           0
      9318 MEMB     70       POPC     C210     CEL1    -0.150000       12.0110           0
      9319 MEMB     70       POPC     H101     HEL1     0.150000       1.00800           0
      9320 MEMB     70       POPC     C211     CTL2    -0.180000       12.0110           0
      9321 MEMB     70       POPC     H11R     HAL2     0.900000E-01   1.00800           0
      9322 MEMB     70       POPC     H11S     HAL2     0.900000E-01   1.00800           0
      9323 MEMB     70       POPC     C212     CTL2    -0.180000       12.0110           0
      9324 MEMB     70       POPC     H12R     HAL2     0.900000E-01   1.00800           0
      9325 MEMB     70       POPC     H12S     HAL2     0.900000E-01   1.00800           0
      9326 MEMB     70       POPC     C213     CTL2    -0.180000       12.0110           0
      9327 MEMB     70       POPC     H13R     HAL2     0.900000E-01   1.00800           0
      9328 MEMB     70       POPC     H13S     HAL2     0.900000E-01   1.00800           0
      9329 MEMB     70       POPC     C214     CTL2    -0.180000       12.0110           0
      9330 MEMB     70       POPC     H14R     HAL2     0.900000E-01   1.00800           0
      9331 MEMB     70       POPC     H14S     HAL2     0.900000E-01   1.00800           0
      9332 MEMB     70       POPC     C215     CTL2    -0.180000       12.0110           0
      9333 MEMB     70       POPC     H15R     HAL2     0.900000E-01   1.00800           0
      9334 MEMB     70       POPC     H15S     HAL2     0.900000E-01   1.00800           0
      9335 MEMB     70       POPC     C216     CTL2    -0.180000       12.0110           0
      9336 MEMB     70       POPC     H16R     HAL2     0.900000E-01   1.00800           0
      9337 MEMB     70       POPC     H16S     HAL2     0.900000E-01   1.00800           0
      9338 MEMB     70       POPC     C217     CTL2    -0.180000       12.0110           0
      9339 MEMB     70       POPC     H17R     HAL2     0.900000E-01   1.00800           0
      9340 MEMB     70       POPC     H17S     HAL2     0.900000E-01   1.00800           0
      9341 MEMB     70       POPC     C218     CTL3    -0.270000       12.0110           0
      9342 MEMB     70       POPC     H18R     HAL3     0.900000E-01   1.00800           0
      9343 MEMB     70       POPC     H18S     HAL3     0.900000E-01   1.00800           0
      9344 MEMB     70       POPC     H18T     HAL3     0.900000E-01   1.00800           0
      9345 MEMB     70       POPC     C33      CTL2    -0.180000       12.0110           0
      9346 MEMB     70       POPC     H3X      HAL2     0.900000E-01   1.00800           0
      9347 MEMB     70       POPC     H3Y      HAL2     0.900000E-01   1.00800           0
      9348 MEMB     70       POPC     C34      CTL2    -0.180000       12.0110           0
      9349 MEMB     70       POPC     H4X      HAL2     0.900000E-01   1.00800           0
      9350 MEMB     70       POPC     H4Y      HAL2     0.900000E-01   1.00800           0
      9351 MEMB     70       POPC     C35      CTL2    -0.180000       12.0110           0
      9352 MEMB     70       POPC     H5X      HAL2     0.900000E-01   1.00800           0
      9353 MEMB     70       POPC     H5Y      HAL2     0.900000E-01   1.00800           0
      9354 MEMB     70       POPC     C36      CTL2    -0.180000       12.0110           0
      9355 MEMB     70       POPC     H6X      HAL2     0.900000E-01   1.00800           0
      9356 MEMB     70       POPC     H6Y      HAL2     0.900000E-01   1.00800           0
      9357 MEMB     70       POPC     C37      CTL2    -0.180000       12.0110           0
      9358 MEMB     70       POPC     H7X      HAL2     0.900000E-01   1.00800           0
      9359 MEMB     70       POPC     H7Y      HAL2     0.900000E-01   1.00800           0
      9360 MEMB     70       POPC     C38      CTL2    -0.180000       12.0110           0
      9361 MEMB     70       POPC     H8X      HAL2     0.900000E-01   1.00800           0
      9362 MEMB     70       POPC     H8Y      HAL2     0.900000E-01   1.00800           0
      9363 MEMB     70       POPC     C39      CTL2    -0.180000       12.0110           0
      9364 MEMB     70       POPC     H9X      HAL2     0.900000E-01   1.00800           0
      9365 MEMB     70       POPC     H9Y      HAL2     0.900000E-01   1.00800           0
      9366 MEMB     70       POPC     C310     CTL2    -0.180000       12.0110           0
      9367 MEMB     70       POPC     H10X     HAL2     0.900000E-01   1.00800           0
      9368 MEMB     70       POPC     H10Y     HAL2     0.900000E-01   1.00800           0
      9369 MEMB     70       POPC     C311     CTL2    -0.180000       12.0110           0
      9370 MEMB     70       POPC     H11X     HAL2     0.900000E-01   1.00800           0
      9371 MEMB     70       POPC     H11Y     HAL2     0.900000E-01   1.00800           0
      9372 MEMB     70       POPC     C312     CTL2    -0.180000       12.0110           0
      9373 MEMB     70       POPC     H12X     HAL2     0.900000E-01   1.00800           0
      9374 MEMB     70       POPC     H12Y     HAL2     0.900000E-01   1.00800           0
      9375 MEMB     70       POPC     C313     CTL2    -0.180000       12.0110           0
      9376 MEMB     70       POPC     H13X     HAL2     0.900000E-01   1.00800           0
      9377 MEMB     70       POPC     H13Y     HAL2     0.900000E-01   1.00800           0
      9378 MEMB     70       POPC     C314     CTL2    -0.180000       12.0110           0
      9379 MEMB     70       POPC     H14X     HAL2     0.900000E-01   1.00800           0
      9380 MEMB     70       POPC     H14Y     HAL2     0.900000E-01   1.00800           0
      9381 MEMB     70       POPC     C315     CTL2    -0.180000       12.0110           0
      9382 MEMB     70       POPC     H15X     HAL2     0.900000E-01   1.00800           0
      9383 MEMB     70       POPC     H15Y     HAL2     0.900000E-01   1.00800           0
      9384 MEMB     70       POPC     C316     CTL3    -0.270000       12.0110           0
      9385 MEMB     70       POPC     H16X     HAL3     0.900000E-01   1.00800           0
      9386 MEMB     70       POPC     H16Y     HAL3     0.900000E-01   1.00800           0
      9387 MEMB     70       POPC     H16Z     HAL3     0.900000E-01   1.00800           0
      9388 MEMB     71       POPC     N        NTL     -0.600000       14.0070           0
      9389 MEMB     71       POPC     C12      CTL2    -0.100000       12.0110           0
      9390 MEMB     71       POPC     H12A     HL       0.250000       1.00800           0
      9391 MEMB     71       POPC     H12B     HL       0.250000       1.00800           0
      9392 MEMB     71       POPC     C13      CTL5    -0.350000       12.0110           0
      9393 MEMB     71       POPC     H13A     HL       0.250000       1.00800           0
      9394 MEMB     71       POPC     H13B     HL       0.250000       1.00800           0
      9395 MEMB     71       POPC     H13C     HL       0.250000       1.00800           0
      9396 MEMB     71       POPC     C14      CTL5    -0.350000       12.0110           0
      9397 MEMB     71       POPC     H14A     HL       0.250000       1.00800           0
      9398 MEMB     71       POPC     H14B     HL       0.250000       1.00800           0
      9399 MEMB     71       POPC     H14C     HL       0.250000       1.00800           0
      9400 MEMB     71       POPC     C15      CTL5    -0.350000       12.0110           0
      9401 MEMB     71       POPC     H15A     HL       0.250000       1.00800           0
      9402 MEMB     71       POPC     H15B     HL       0.250000       1.00800           0
      9403 MEMB     71       POPC     H15C     HL       0.250000       1.00800           0
      9404 MEMB     71       POPC     C11      CTL2    -0.800000E-01   12.0110           0
      9405 MEMB     71       POPC     H11A     HAL2     0.900000E-01   1.00800           0
      9406 MEMB     71       POPC     H11B     HAL2     0.900000E-01   1.00800           0
      9407 MEMB     71       POPC     P        PL       1.500000       30.9740           0
      9408 MEMB     71       POPC     O13      O2L     -0.780000       15.9994           0
      9409 MEMB     71       POPC     O14      O2L     -0.780000       15.9994           0
      9410 MEMB     71       POPC     O12      OSLP    -0.570000       15.9994           0
      9411 MEMB     71       POPC     O11      OSLP    -0.570000       15.9994           0
      9412 MEMB     71       POPC     C1       CTL2    -0.800000E-01   12.0110           0
      9413 MEMB     71       POPC     HA       HAL2     0.900000E-01   1.00800           0
      9414 MEMB     71       POPC     HB       HAL2     0.900000E-01   1.00800           0
      9415 MEMB     71       POPC     C2       CTL1     0.170000       12.0110           0
      9416 MEMB     71       POPC     HS       HAL1     0.900000E-01   1.00800           0
      9417 MEMB     71       POPC     O21      OSL     -0.490000       15.9994           0
      9418 MEMB     71       POPC     C21      CL       0.900000       12.0110           0
      9419 MEMB     71       POPC     O22      OBL     -0.630000       15.9994           0
      9420 MEMB     71       POPC     C22      CTL2    -0.220000       12.0110           0
      9421 MEMB     71       POPC     H2R      HAL2     0.900000E-01   1.00800           0
      9422 MEMB     71       POPC     H2S      HAL2     0.900000E-01   1.00800           0
      9423 MEMB     71       POPC     C3       CTL2     0.800000E-01   12.0110           0
      9424 MEMB     71       POPC     HX       HAL2     0.900000E-01   1.00800           0
      9425 MEMB     71       POPC     HY       HAL2     0.900000E-01   1.00800           0
      9426 MEMB     71       POPC     O31      OSL     -0.490000       15.9994           0
      9427 MEMB     71       POPC     C31      CL       0.900000       12.0110           0
      9428 MEMB     71       POPC     O32      OBL     -0.630000       15.9994           0
      9429 MEMB     71       POPC     C32      CTL2    -0.220000       12.0110           0
      9430 MEMB     71       POPC     H2X      HAL2     0.900000E-01   1.00800           0
      9431 MEMB     71       POPC     H2Y      HAL2     0.900000E-01   1.00800           0
      9432 MEMB     71       POPC     C23      CTL2    -0.180000       12.0110           0
      9433 MEMB     71       POPC     H3R      HAL2     0.900000E-01   1.00800           0
      9434 MEMB     71       POPC     H3S      HAL2     0.900000E-01   1.00800           0
      9435 MEMB     71       POPC     C24      CTL2    -0.180000       12.0110           0
      9436 MEMB     71       POPC     H4R      HAL2     0.900000E-01   1.00800           0
      9437 MEMB     71       POPC     H4S      HAL2     0.900000E-01   1.00800           0
      9438 MEMB     71       POPC     C25      CTL2    -0.180000       12.0110           0
      9439 MEMB     71       POPC     H5R      HAL2     0.900000E-01   1.00800           0
      9440 MEMB     71       POPC     H5S      HAL2     0.900000E-01   1.00800           0
      9441 MEMB     71       POPC     C26      CTL2    -0.180000       12.0110           0
      9442 MEMB     71       POPC     H6R      HAL2     0.900000E-01   1.00800           0
      9443 MEMB     71       POPC     H6S      HAL2     0.900000E-01   1.00800           0
      9444 MEMB     71       POPC     C27      CTL2    -0.180000       12.0110           0
      9445 MEMB     71       POPC     H7R      HAL2     0.900000E-01   1.00800           0
      9446 MEMB     71       POPC     H7S      HAL2     0.900000E-01   1.00800           0
      9447 MEMB     71       POPC     C28      CTL2    -0.180000       12.0110           0
      9448 MEMB     71       POPC     H8R      HAL2     0.900000E-01   1.00800           0
      9449 MEMB     71       POPC     H8S      HAL2     0.900000E-01   1.00800           0
      9450 MEMB     71       POPC     C29      CEL1    -0.150000       12.0110           0
      9451 MEMB     71       POPC     H91      HEL1     0.150000       1.00800           0
      9452 MEMB     71       POPC     C210     CEL1    -0.150000       12.0110           0
      9453 MEMB     71       POPC     H101     HEL1     0.150000       1.00800           0
      9454 MEMB     71       POPC     C211     CTL2    -0.180000       12.0110           0
      9455 MEMB     71       POPC     H11R     HAL2     0.900000E-01   1.00800           0
      9456 MEMB     71       POPC     H11S     HAL2     0.900000E-01   1.00800           0
      9457 MEMB     71       POPC     C212     CTL2    -0.180000       12.0110           0
      9458 MEMB     71       POPC     H12R     HAL2     0.900000E-01   1.00800           0
      9459 MEMB     71       POPC     H12S     HAL2     0.900000E-01   1.00800           0
      9460 MEMB     71       POPC     C213     CTL2    -0.180000       12.0110           0
      9461 MEMB     71       POPC     H13R     HAL2     0.900000E-01   1.00800           0
      9462 MEMB     71       POPC     H13S     HAL2     0.900000E-01   1.00800           0
      9463 MEMB     71       POPC     C214     CTL2    -0.180000       12.0110           0
      9464 MEMB     71       POPC     H14R     HAL2     0.900000E-01   1.00800           0
      9465 MEMB     71       POPC     H14S     HAL2     0.900000E-01   1.00800           0
      9466 MEMB     71       POPC     C215     CTL2    -0.180000       12.0110           0
      9467 MEMB     71       POPC     H15R     HAL2     0.900000E-01   1.00800           0
      9468 MEMB     71       POPC     H15S     HAL2     0.900000E-01   1.00800           0
      9469 MEMB     71       POPC     C216     CTL2    -0.180000       12.0110           0
      9470 MEMB     71       POPC     H16R     HAL2     0.900000E-01   1.00800           0
      9471 MEMB     71       POPC     H16S     HAL2     0.900000E-01   1.00800           0
      9472 MEMB     71       POPC     C217     CTL2    -0.180000       12.0110           0
      9473 MEMB     71       POPC     H17R     HAL2     0.900000E-01   1.00800           0
      9474 MEMB     71       POPC     H17S     HAL2     0.900000E-01   1.00800           0
      9475 MEMB     71       POPC     C218     CTL3    -0.270000       12.0110           0
      9476 MEMB     71       POPC     H18R     HAL3     0.900000E-01   1.00800           0
      9477 MEMB     71       POPC     H18S     HAL3     0.900000E-01   1.00800           0
      9478 MEMB     71       POPC     H18T     HAL3     0.900000E-01   1.00800           0
      9479 MEMB     71       POPC     C33      CTL2    -0.180000       12.0110           0
      9480 MEMB     71       POPC     H3X      HAL2     0.900000E-01   1.00800           0
      9481 MEMB     71       POPC     H3Y      HAL2     0.900000E-01   1.00800           0
      9482 MEMB     71       POPC     C34      CTL2    -0.180000       12.0110           0
      9483 MEMB     71       POPC     H4X      HAL2     0.900000E-01   1.00800           0
      9484 MEMB     71       POPC     H4Y      HAL2     0.900000E-01   1.00800           0
      9485 MEMB     71       POPC     C35      CTL2    -0.180000       12.0110           0
      9486 MEMB     71       POPC     H5X      HAL2     0.900000E-01   1.00800           0
      9487 MEMB     71       POPC     H5Y      HAL2     0.900000E-01   1.00800           0
      9488 MEMB     71       POPC     C36      CTL2    -0.180000       12.0110           0
      9489 MEMB     71       POPC     H6X      HAL2     0.900000E-01   1.00800           0
      9490 MEMB     71       POPC     H6Y      HAL2     0.900000E-01   1.00800           0
      9491 MEMB     71       POPC     C37      CTL2    -0.180000       12.0110           0
      9492 MEMB     71       POPC     H7X      HAL2     0.900000E-01   1.00800           0
      9493 MEMB     71       POPC     H7Y      HAL2     0.900000E-01   1.00800           0
      9494 MEMB     71       POPC     C38      CTL2    -0.180000       12.0110           0
      9495 MEMB     71       POPC     H8X      HAL2     0.900000E-01   1.00800           0
      9496 MEMB     71       POPC     H8Y      HAL2     0.900000E-01   1.00800           0
      9497 MEMB     71       POPC     C39      CTL2    -0.180000       12.0110           0
      9498 MEMB     71       POPC     H9X      HAL2     0.900000E-01   1.00800           0
      9499 MEMB     71       POPC     H9Y      HAL2     0.900000E-01   1.00800           0
      9500 MEMB     71       POPC     C310     CTL2    -0.180000       12.0110           0
      9501 MEMB     71       POPC     H10X     HAL2     0.900000E-01   1.00800           0
      9502 MEMB     71       POPC     H10Y     HAL2     0.900000E-01   1.00800           0
      9503 MEMB     71       POPC     C311     CTL2    -0.180000       12.0110           0
      9504 MEMB     71       POPC     H11X     HAL2     0.900000E-01   1.00800           0
      9505 MEMB     71       POPC     H11Y     HAL2     0.900000E-01   1.00800           0
      9506 MEMB     71       POPC     C312     CTL2    -0.180000       12.0110           0
      9507 MEMB     71       POPC     H12X     HAL2     0.900000E-01   1.00800           0
      9508 MEMB     71       POPC     H12Y     HAL2     0.900000E-01   1.00800           0
      9509 MEMB     71       POPC     C313     CTL2    -0.180000       12.0110           0
      9510 MEMB     71       POPC     H13X     HAL2     0.900000E-01   1.00800           0
      9511 MEMB     71       POPC     H13Y     HAL2     0.900000E-01   1.00800           0
      9512 MEMB     71       POPC     C314     CTL2    -0.180000       12.0110           0
      9513 MEMB     71       POPC     H14X     HAL2     0.900000E-01   1.00800           0
      9514 MEMB     71       POPC     H14Y     HAL2     0.900000E-01   1.00800           0
      9515 MEMB     71       POPC     C315     CTL2    -0.180000       12.0110           0
      9516 MEMB     71       POPC     H15X     HAL2     0.900000E-01   1.00800           0
      9517 MEMB     71       POPC     H15Y     HAL2     0.900000E-01   1.00800           0
      9518 MEMB     71       POPC     C316     CTL3    -0.270000       12.0110           0
      9519 MEMB     71       POPC     H16X     HAL3     0.900000E-01   1.00800           0
      9520 MEMB     71       POPC     H16Y     HAL3     0.900000E-01   1.00800           0
      9521 MEMB     71       POPC     H16Z     HAL3     0.900000E-01   1.00800           0
      9522 MEMB     72       POPC     N        NTL     -0.600000       14.0070           0
      9523 MEMB     72       POPC     C12      CTL2    -0.100000       12.0110           0
      9524 MEMB     72       POPC     H12A     HL       0.250000       1.00800           0
      9525 MEMB     72       POPC     H12B     HL       0.250000       1.00800           0
      9526 MEMB     72       POPC     C13      CTL5    -0.350000       12.0110           0
      9527 MEMB     72       POPC     H13A     HL       0.250000       1.00800           0
      9528 MEMB     72       POPC     H13B     HL       0.250000       1.00800           0
      9529 MEMB     72       POPC     H13C     HL       0.250000       1.00800           0
      9530 MEMB     72       POPC     C14      CTL5    -0.350000       12.0110           0
      9531 MEMB     72       POPC     H14A     HL       0.250000       1.00800           0
      9532 MEMB     72       POPC     H14B     HL       0.250000       1.00800           0
      9533 MEMB     72       POPC     H14C     HL       0.250000       1.00800           0
      9534 MEMB     72       POPC     C15      CTL5    -0.350000       12.0110           0
      9535 MEMB     72       POPC     H15A     HL       0.250000       1.00800           0
      9536 MEMB     72       POPC     H15B     HL       0.250000       1.00800           0
      9537 MEMB     72       POPC     H15C     HL       0.250000       1.00800           0
      9538 MEMB     72       POPC     C11      CTL2    -0.800000E-01   12.0110           0
      9539 MEMB     72       POPC     H11A     HAL2     0.900000E-01   1.00800           0
      9540 MEMB     72       POPC     H11B     HAL2     0.900000E-01   1.00800           0
      9541 MEMB     72       POPC     P        PL       1.500000       30.9740           0
      9542 MEMB     72       POPC     O13      O2L     -0.780000       15.9994           0
      9543 MEMB     72       POPC     O14      O2L     -0.780000       15.9994           0
      9544 MEMB     72       POPC     O12      OSLP    -0.570000       15.9994           0
      9545 MEMB     72       POPC     O11      OSLP    -0.570000       15.9994           0
      9546 MEMB     72       POPC     C1       CTL2    -0.800000E-01   12.0110           0
      9547 MEMB     72       POPC     HA       HAL2     0.900000E-01   1.00800           0
      9548 MEMB     72       POPC     HB       HAL2     0.900000E-01   1.00800           0
      9549 MEMB     72       POPC     C2       CTL1     0.170000       12.0110           0
      9550 MEMB     72       POPC     HS       HAL1     0.900000E-01   1.00800           0
      9551 MEMB     72       POPC     O21      OSL     -0.490000       15.9994           0
      9552 MEMB     72       POPC     C21      CL       0.900000       12.0110           0
      9553 MEMB     72       POPC     O22      OBL     -0.630000       15.9994           0
      9554 MEMB     72       POPC     C22      CTL2    -0.220000       12.0110           0
      9555 MEMB     72       POPC     H2R      HAL2     0.900000E-01   1.00800           0
      9556 MEMB     72       POPC     H2S      HAL2     0.900000E-01   1.00800           0
      9557 MEMB     72       POPC     C3       CTL2     0.800000E-01   12.0110           0
      9558 MEMB     72       POPC     HX       HAL2     0.900000E-01   1.00800           0
      9559 MEMB     72       POPC     HY       HAL2     0.900000E-01   1.00800           0
      9560 MEMB     72       POPC     O31      OSL     -0.490000       15.9994           0
      9561 MEMB     72       POPC     C31      CL       0.900000       12.0110           0
      9562 MEMB     72       POPC     O32      OBL     -0.630000       15.9994           0
      9563 MEMB     72       POPC     C32      CTL2    -0.220000       12.0110           0
      9564 MEMB     72       POPC     H2X      HAL2     0.900000E-01   1.00800           0
      9565 MEMB     72       POPC     H2Y      HAL2     0.900000E-01   1.00800           0
      9566 MEMB     72       POPC     C23      CTL2    -0.180000       12.0110           0
      9567 MEMB     72       POPC     H3R      HAL2     0.900000E-01   1.00800           0
      9568 MEMB     72       POPC     H3S      HAL2     0.900000E-01   1.00800           0
      9569 MEMB     72       POPC     C24      CTL2    -0.180000       12.0110           0
      9570 MEMB     72       POPC     H4R      HAL2     0.900000E-01   1.00800           0
      9571 MEMB     72       POPC     H4S      HAL2     0.900000E-01   1.00800           0
      9572 MEMB     72       POPC     C25      CTL2    -0.180000       12.0110           0
      9573 MEMB     72       POPC     H5R      HAL2     0.900000E-01   1.00800           0
      9574 MEMB     72       POPC     H5S      HAL2     0.900000E-01   1.00800           0
      9575 MEMB     72       POPC     C26      CTL2    -0.180000       12.0110           0
      9576 MEMB     72       POPC     H6R      HAL2     0.900000E-01   1.00800           0
      9577 MEMB     72       POPC     H6S      HAL2     0.900000E-01   1.00800           0
      9578 MEMB     72       POPC     C27      CTL2    -0.180000       12.0110           0
      9579 MEMB     72       POPC     H7R      HAL2     0.900000E-01   1.00800           0
      9580 MEMB     72       POPC     H7S      HAL2     0.900000E-01   1.00800           0
      9581 MEMB     72       POPC     C28      CTL2    -0.180000       12.0110           0
      9582 MEMB     72       POPC     H8R      HAL2     0.900000E-01   1.00800           0
      9583 MEMB     72       POPC     H8S      HAL2     0.900000E-01   1.00800           0
      9584 MEMB     72       POPC     C29      CEL1    -0.150000       12.0110           0
      9585 MEMB     72       POPC     H91      HEL1     0.150000       1.00800           0
      9586 MEMB     72       POPC     C210     CEL1    -0.150000       12.0110           0
      9587 MEMB     72       POPC     H101     HEL1     0.150000       1.00800           0
      9588 MEMB     72       POPC     C211     CTL2    -0.180000       12.0110           0
      9589 MEMB     72       POPC     H11R     HAL2     0.900000E-01   1.00800           0
      9590 MEMB     72       POPC     H11S     HAL2     0.900000E-01   1.00800           0
      9591 MEMB     72       POPC     C212     CTL2    -0.180000       12.0110           0
      9592 MEMB     72       POPC     H12R     HAL2     0.900000E-01   1.00800           0
      9593 MEMB     72       POPC     H12S     HAL2     0.900000E-01   1.00800           0
      9594 MEMB     72       POPC     C213     CTL2    -0.180000       12.0110           0
      9595 MEMB     72       POPC     H13R     HAL2     0.900000E-01   1.00800           0
      9596 MEMB     72       POPC     H13S     HAL2     0.900000E-01   1.00800           0
      9597 MEMB     72       POPC     C214     CTL2    -0.180000       12.0110           0
      9598 MEMB     72       POPC     H14R     HAL2     0.900000E-01   1.00800           0
      9599 MEMB     72       POPC     H14S     HAL2     0.900000E-01   1.00800           0
      9600 MEMB     72       POPC     C215     CTL2    -0.180000       12.0110           0
      9601 MEMB     72       POPC     H15R     HAL2     0.900000E-01   1.00800           0
      9602 MEMB     72       POPC     H15S     HAL2     0.900000E-01   1.00800           0
      9603 MEMB     72       POPC     C216     CTL2    -0.180000       12.0110           0
      9604 MEMB     72       POPC     H16R     HAL2     0.900000E-01   1.00800           0
      9605 MEMB     72       POPC     H16S     HAL2     0.900000E-01   1.00800           0
      9606 MEMB     72       POPC     C217     CTL2    -0.180000       12.0110           0
      9607 MEMB     72       POPC     H17R     HAL2     0.900000E-01   1.00800           0
      9608 MEMB     72       POPC     H17S     HAL2     0.900000E-01   1.00800           0
      9609 MEMB     72       POPC     C218     CTL3    -0.270000       12.0110           0
      9610 MEMB     72       POPC     H18R     HAL3     0.900000E-01   1.00800           0
      9611 MEMB     72       POPC     H18S     HAL3     0.900000E-01   1.00800           0
      9612 MEMB     72       POPC     H18T     HAL3     0.900000E-01   1.00800           0
      9613 MEMB     72       POPC     C33      CTL2    -0.180000       12.0110           0
      9614 MEMB     72       POPC     H3X      HAL2     0.900000E-01   1.00800           0
      9615 MEMB     72       POPC     H3Y      HAL2     0.900000E-01   1.00800           0
      9616 MEMB     72       POPC     C34      CTL2    -0.180000       12.0110           0
      9617 MEMB     72       POPC     H4X      HAL2     0.900000E-01   1.00800           0
      9618 MEMB     72       POPC     H4Y      HAL2     0.900000E-01   1.00800           0
      9619 MEMB     72       POPC     C35      CTL2    -0.180000       12.0110           0
      9620 MEMB     72       POPC     H5X      HAL2     0.900000E-01   1.00800           0
      9621 MEMB     72       POPC     H5Y      HAL2     0.900000E-01   1.00800           0
      9622 MEMB     72       POPC     C36      CTL2    -0.180000       12.0110           0
      9623 MEMB     72       POPC     H6X      HAL2     0.900000E-01   1.00800           0
      9624 MEMB     72       POPC     H6Y      HAL2     0.900000E-01   1.00800           0
      9625 MEMB     72       POPC     C37      CTL2    -0.180000       12.0110           0
      9626 MEMB     72       POPC     H7X      HAL2     0.900000E-01   1.00800           0
      9627 MEMB     72       POPC     H7Y      HAL2     0.900000E-01   1.00800           0
      9628 MEMB     72       POPC     C38      CTL2    -0.180000       12.0110           0
      9629 MEMB     72       POPC     H8X      HAL2     0.900000E-01   1.00800           0
      9630 MEMB     72       POPC     H8Y      HAL2     0.900000E-01   1.00800           0
      9631 MEMB     72       POPC     C39      CTL2    -0.180000       12.0110           0
      9632 MEMB     72       POPC     H9X      HAL2     0.900000E-01   1.00800           0
      9633 MEMB     72       POPC     H9Y      HAL2     0.900000E-01   1.00800           0
      9634 MEMB     72       POPC     C310     CTL2    -0.180000       12.0110           0
      9635 MEMB     72       POPC     H10X     HAL2     0.900000E-01   1.00800           0
      9636 MEMB     72       POPC     H10Y     HAL2     0.900000E-01   1.00800           0
      9637 MEMB     72       POPC     C311     CTL2    -0.180000       12.0110           0
      9638 MEMB     72       POPC     H11X     HAL2     0.900000E-01   1.00800           0
      9639 MEMB     72       POPC     H11Y     HAL2     0.900000E-01   1.00800           0
      9640 MEMB     72       POPC     C312     CTL2    -0.180000       12.0110           0
      9641 MEMB     72       POPC     H12X     HAL2     0.900000E-01   1.00800           0
      9642 MEMB     72       POPC     H12Y     HAL2     0.900000E-01   1.00800           0
      9643 MEMB     72       POPC     C313     CTL2    -0.180000       12.0110           0
      9644 MEMB     72       POPC     H13X     HAL2     0.900000E-01   1.00800           0
      9645 MEMB     72       POPC     H13Y     HAL2     0.900000E-01   1.00800           0
      9646 MEMB     72       POPC     C314     CTL2    -0.180000       12.0110           0
      9647 MEMB     72       POPC     H14X     HAL2     0.900000E-01   1.00800           0
      9648 MEMB     72       POPC     H14Y     HAL2     0.900000E-01   1.00800           0
      9649 MEMB     72       POPC     C315     CTL2    -0.180000       12.0110           0
      9650 MEMB     72       POPC     H15X     HAL2     0.900000E-01   1.00800           0
      9651 MEMB     72       POPC     H15Y     HAL2     0.900000E-01   1.00800           0
      9652 MEMB     72       POPC     C316     CTL3    -0.270000       12.0110           0
      9653 MEMB     72       POPC     H16X     HAL3     0.900000E-01   1.00800           0
      9654 MEMB     72       POPC     H16Y     HAL3     0.900000E-01   1.00800           0
      9655 MEMB     72       POPC     H16Z     HAL3     0.900000E-01   1.00800           0
      9656 MEMB     73       POPC     N        NTL     -0.600000       14.0070           0
      9657 MEMB     73       POPC     C12      CTL2    -0.100000       12.0110           0
      9658 MEMB     73       POPC     H12A     HL       0.250000       1.00800           0
      9659 MEMB     73       POPC     H12B     HL       0.250000       1.00800           0
      9660 MEMB     73       POPC     C13      CTL5    -0.350000       12.0110           0
      9661 MEMB     73       POPC     H13A     HL       0.250000       1.00800           0
      9662 MEMB     73       POPC     H13B     HL       0.250000       1.00800           0
      9663 MEMB     73       POPC     H13C     HL       0.250000       1.00800           0
      9664 MEMB     73       POPC     C14      CTL5    -0.350000       12.0110           0
      9665 MEMB     73       POPC     H14A     HL       0.250000       1.00800           0
      9666 MEMB     73       POPC     H14B     HL       0.250000       1.00800           0
      9667 MEMB     73       POPC     H14C     HL       0.250000       1.00800           0
      9668 MEMB     73       POPC     C15      CTL5    -0.350000       12.0110           0
      9669 MEMB     73       POPC     H15A     HL       0.250000       1.00800           0
      9670 MEMB     73       POPC     H15B     HL       0.250000       1.00800           0
      9671 MEMB     73       POPC     H15C     HL       0.250000       1.00800           0
      9672 MEMB     73       POPC     C11      CTL2    -0.800000E-01   12.0110           0
      9673 MEMB     73       POPC     H11A     HAL2     0.900000E-01   1.00800           0
      9674 MEMB     73       POPC     H11B     HAL2     0.900000E-01   1.00800           0
      9675 MEMB     73       POPC     P        PL       1.500000       30.9740           0
      9676 MEMB     73       POPC     O13      O2L     -0.780000       15.9994           0
      9677 MEMB     73       POPC     O14      O2L     -0.780000       15.9994           0
      9678 MEMB     73       POPC     O12      OSLP    -0.570000       15.9994           0
      9679 MEMB     73       POPC     O11      OSLP    -0.570000       15.9994           0
      9680 MEMB     73       POPC     C1       CTL2    -0.800000E-01   12.0110           0
      9681 MEMB     73       POPC     HA       HAL2     0.900000E-01   1.00800           0
      9682 MEMB     73       POPC     HB       HAL2     0.900000E-01   1.00800           0
      9683 MEMB     73       POPC     C2       CTL1     0.170000       12.0110           0
      9684 MEMB     73       POPC     HS       HAL1     0.900000E-01   1.00800           0
      9685 MEMB     73       POPC     O21      OSL     -0.490000       15.9994           0
      9686 MEMB     73       POPC     C21      CL       0.900000       12.0110           0
      9687 MEMB     73       POPC     O22      OBL     -0.630000       15.9994           0
      9688 MEMB     73       POPC     C22      CTL2    -0.220000       12.0110           0
      9689 MEMB     73       POPC     H2R      HAL2     0.900000E-01   1.00800           0
      9690 MEMB     73       POPC     H2S      HAL2     0.900000E-01   1.00800           0
      9691 MEMB     73       POPC     C3       CTL2     0.800000E-01   12.0110           0
      9692 MEMB     73       POPC     HX       HAL2     0.900000E-01   1.00800           0
      9693 MEMB     73       POPC     HY       HAL2     0.900000E-01   1.00800           0
      9694 MEMB     73       POPC     O31      OSL     -0.490000       15.9994           0
      9695 MEMB     73       POPC     C31      CL       0.900000       12.0110           0
      9696 MEMB     73       POPC     O32      OBL     -0.630000       15.9994           0
      9697 MEMB     73       POPC     C32      CTL2    -0.220000       12.0110           0
      9698 MEMB     73       POPC     H2X      HAL2     0.900000E-01   1.00800           0
      9699 MEMB     73       POPC     H2Y      HAL2     0.900000E-01   1.00800           0
      9700 MEMB     73       POPC     C23      CTL2    -0.180000       12.0110           0
      9701 MEMB     73       POPC     H3R      HAL2     0.900000E-01   1.00800           0
      9702 MEMB     73       POPC     H3S      HAL2     0.900000E-01   1.00800           0
      9703 MEMB     73       POPC     C24      CTL2    -0.180000       12.0110           0
      9704 MEMB     73       POPC     H4R      HAL2     0.900000E-01   1.00800           0
      9705 MEMB     73       POPC     H4S      HAL2     0.900000E-01   1.00800           0
      9706 MEMB     73       POPC     C25      CTL2    -0.180000       12.0110           0
      9707 MEMB     73       POPC     H5R      HAL2     0.900000E-01   1.00800           0
      9708 MEMB     73       POPC     H5S      HAL2     0.900000E-01   1.00800           0
      9709 MEMB     73       POPC     C26      CTL2    -0.180000       12.0110           0
      9710 MEMB     73       POPC     H6R      HAL2     0.900000E-01   1.00800           0
      9711 MEMB     73       POPC     H6S      HAL2     0.900000E-01   1.00800           0
      9712 MEMB     73       POPC     C27      CTL2    -0.180000       12.0110           0
      9713 MEMB     73       POPC     H7R      HAL2     0.900000E-01   1.00800           0
      9714 MEMB     73       POPC     H7S      HAL2     0.900000E-01   1.00800           0
      9715 MEMB     73       POPC     C28      CTL2    -0.180000       12.0110           0
      9716 MEMB     73       POPC     H8R      HAL2     0.900000E-01   1.00800           0
      9717 MEMB     73       POPC     H8S      HAL2     0.900000E-01   1.00800           0
      9718 MEMB     73       POPC     C29      CEL1    -0.150000       12.0110           0
      9719 MEMB     73       POPC     H91      HEL1     0.150000       1.00800           0
      9720 MEMB     73       POPC     C210     CEL1    -0.150000       12.0110           0
      9721 MEMB     73       POPC     H101     HEL1     0.150000       1.00800           0
      9722 MEMB     73       POPC     C211     CTL2    -0.180000       12.0110           0
      9723 MEMB     73       POPC     H11R     HAL2     0.900000E-01   1.00800           0
      9724 MEMB     73       POPC     H11S     HAL2     0.900000E-01   1.00800           0
      9725 MEMB     73       POPC     C212     CTL2    -0.180000       12.0110           0
      9726 MEMB     73       POPC     H12R     HAL2     0.900000E-01   1.00800           0
      9727 MEMB     73       POPC     H12S     HAL2     0.900000E-01   1.00800           0
      9728 MEMB     73       POPC     C213     CTL2    -0.180000       12.0110           0
      9729 MEMB     73       POPC     H13R     HAL2     0.900000E-01   1.00800           0
      9730 MEMB     73       POPC     H13S     HAL2     0.900000E-01   1.00800           0
      9731 MEMB     73       POPC     C214     CTL2    -0.180000       12.0110           0
      9732 MEMB     73       POPC     H14R     HAL2     0.900000E-01   1.00800           0
      9733 MEMB     73       POPC     H14S     HAL2     0.900000E-01   1.00800           0
      9734 MEMB     73       POPC     C215     CTL2    -0.180000       12.0110           0
      9735 MEMB     73       POPC     H15R     HAL2     0.900000E-01   1.00800           0
      9736 MEMB     73       POPC     H15S     HAL2     0.900000E-01   1.00800           0
      9737 MEMB     73       POPC     C216     CTL2    -0.180000       12.0110           0
      9738 MEMB     73       POPC     H16R     HAL2     0.900000E-01   1.00800           0
      9739 MEMB     73       POPC     H16S     HAL2     0.900000E-01   1.00800           0
      9740 MEMB     73       POPC     C217     CTL2    -0.180000       12.0110           0
      9741 MEMB     73       POPC     H17R     HAL2     0.900000E-01   1.00800           0
      9742 MEMB     73       POPC     H17S     HAL2     0.900000E-01   1.00800           0
      9743 MEMB     73       POPC     C218     CTL3    -0.270000       12.0110           0
      9744 MEMB     73       POPC     H18R     HAL3     0.900000E-01   1.00800           0
      9745 MEMB     73       POPC     H18S     HAL3     0.900000E-01   1.00800           0
      9746 MEMB     73       POPC     H18T     HAL3     0.900000E-01   1.00800           0
      9747 MEMB     73       POPC     C33      CTL2    -0.180000       12.0110           0
      9748 MEMB     73       POPC     H3X      HAL2     0.900000E-01   1.00800           0
      9749 MEMB     73       POPC     H3Y      HAL2     0.900000E-01   1.00800           0
      9750 MEMB     73       POPC     C34      CTL2    -0.180000       12.0110           0
      9751 MEMB     73       POPC     H4X      HAL2     0.900000E-01   1.00800           0
      9752 MEMB     73       POPC     H4Y      HAL2     0.900000E-01   1.00800           0
      9753 MEMB     73       POPC     C35      CTL2    -0.180000       12.0110           0
      9754 MEMB     73       POPC     H5X      HAL2     0.900000E-01   1.00800           0
      9755 MEMB     73       POPC     H5Y      HAL2     0.900000E-01   1.00800           0
      9756 MEMB     73       POPC     C36      CTL2    -0.180000       12.0110           0
      9757 MEMB     73       POPC     H6X      HAL2     0.900000E-01   1.00800           0
      9758 MEMB     73       POPC     H6Y      HAL2     0.900000E-01   1.00800           0
      9759 MEMB     73       POPC     C37      CTL2    -0.180000       12.0110           0
      9760 MEMB     73       POPC     H7X      HAL2     0.900000E-01   1.00800           0
      9761 MEMB     73       POPC     H7Y      HAL2     0.900000E-01   1.00800           0
      9762 MEMB     73       POPC     C38      CTL2    -0.180000       12.0110           0
      9763 MEMB     73       POPC     H8X      HAL2     0.900000E-01   1.00800           0
      9764 MEMB     73       POPC     H8Y      HAL2     0.900000E-01   1.00800           0
      9765 MEMB     73       POPC     C39      CTL2    -0.180000       12.0110           0
      9766 MEMB     73       POPC     H9X      HAL2     0.900000E-01   1.00800           0
      9767 MEMB     73       POPC     H9Y      HAL2     0.900000E-01   1.00800           0
      9768 MEMB     73       POPC     C310     CTL2    -0.180000       12.0110           0
      9769 MEMB     73       POPC     H10X     HAL2     0.900000E-01   1.00800           0
      9770 MEMB     73       POPC     H10Y     HAL2     0.900000E-01   1.00800           0
      9771 MEMB     73       POPC     C311     CTL2    -0.180000       12.0110           0
      9772 MEMB     73       POPC     H11X     HAL2     0.900000E-01   1.00800           0
      9773 MEMB     73       POPC     H11Y     HAL2     0.900000E-01   1.00800           0
      9774 MEMB     73       POPC     C312     CTL2    -0.180000       12.0110           0
      9775 MEMB     73       POPC     H12X     HAL2     0.900000E-01   1.00800           0
      9776 MEMB     73       POPC     H12Y     HAL2     0.900000E-01   1.00800           0
      9777 MEMB     73       POPC     C313     CTL2    -0.180000       12.0110           0
      9778 MEMB     73       POPC     H13X     HAL2     0.900000E-01   1.00800           0
      9779 MEMB     73       POPC     H13Y     HAL2     0.900000E-01   1.00800           0
      9780 MEMB     73       POPC     C314     CTL2    -0.180000       12.0110           0
      9781 MEMB     73       POPC     H14X     HAL2     0.900000E-01   1.00800           0
      9782 MEMB     73       POPC     H14Y     HAL2     0.900000E-01   1.00800           0
      9783 MEMB     73       POPC     C315     CTL2    -0.180000       12.0110           0
      9784 MEMB     73       POPC     H15X     HAL2     0.900000E-01   1.00800           0
      9785 MEMB     73       POPC     H15Y     HAL2     0.900000E-01   1.00800           0
      9786 MEMB     73       POPC     C316     CTL3    -0.270000       12.0110           0
      9787 MEMB     73       POPC     H16X     HAL3     0.900000E-01   1.00800           0
      9788 MEMB     73       POPC     H16Y     HAL3     0.900000E-01   1.00800           0
      9789 MEMB     73       POPC     H16Z     HAL3     0.900000E-01   1.00800           0
      9790 MEMB     74       POPC     N        NTL     -0.600000       14.0070           0
      9791 MEMB     74       POPC     C12      CTL2    -0.100000       12.0110           0
      9792 MEMB     74       POPC     H12A     HL       0.250000       1.00800           0
      9793 MEMB     74       POPC     H12B     HL       0.250000       1.00800           0
      9794 MEMB     74       POPC     C13      CTL5    -0.350000       12.0110           0
      9795 MEMB     74       POPC     H13A     HL       0.250000       1.00800           0
      9796 MEMB     74       POPC     H13B     HL       0.250000       1.00800           0
      9797 MEMB     74       POPC     H13C     HL       0.250000       1.00800           0
      9798 MEMB     74       POPC     C14      CTL5    -0.350000       12.0110           0
      9799 MEMB     74       POPC     H14A     HL       0.250000       1.00800           0
      9800 MEMB     74       POPC     H14B     HL       0.250000       1.00800           0
      9801 MEMB     74       POPC     H14C     HL       0.250000       1.00800           0
      9802 MEMB     74       POPC     C15      CTL5    -0.350000       12.0110           0
      9803 MEMB     74       POPC     H15A     HL       0.250000       1.00800           0
      9804 MEMB     74       POPC     H15B     HL       0.250000       1.00800           0
      9805 MEMB     74       POPC     H15C     HL       0.250000       1.00800           0
      9806 MEMB     74       POPC     C11      CTL2    -0.800000E-01   12.0110           0
      9807 MEMB     74       POPC     H11A     HAL2     0.900000E-01   1.00800           0
      9808 MEMB     74       POPC     H11B     HAL2     0.900000E-01   1.00800           0
      9809 MEMB     74       POPC     P        PL       1.500000       30.9740           0
      9810 MEMB     74       POPC     O13      O2L     -0.780000       15.9994           0
      9811 MEMB     74       POPC     O14      O2L     -0.780000       15.9994           0
      9812 MEMB     74       POPC     O12      OSLP    -0.570000       15.9994           0
      9813 MEMB     74       POPC     O11      OSLP    -0.570000       15.9994           0
      9814 MEMB     74       POPC     C1       CTL2    -0.800000E-01   12.0110           0
      9815 MEMB     74       POPC     HA       HAL2     0.900000E-01   1.00800           0
      9816 MEMB     74       POPC     HB       HAL2     0.900000E-01   1.00800           0
      9817 MEMB     74       POPC     C2       CTL1     0.170000       12.0110           0
      9818 MEMB     74       POPC     HS       HAL1     0.900000E-01   1.00800           0
      9819 MEMB     74       POPC     O21      OSL     -0.490000       15.9994           0
      9820 MEMB     74       POPC     C21      CL       0.900000       12.0110           0
      9821 MEMB     74       POPC     O22      OBL     -0.630000       15.9994           0
      9822 MEMB     74       POPC     C22      CTL2    -0.220000       12.0110           0
      9823 MEMB     74       POPC     H2R      HAL2     0.900000E-01   1.00800           0
      9824 MEMB     74       POPC     H2S      HAL2     0.900000E-01   1.00800           0
      9825 MEMB     74       POPC     C3       CTL2     0.800000E-01   12.0110           0
      9826 MEMB     74       POPC     HX       HAL2     0.900000E-01   1.00800           0
      9827 MEMB     74       POPC     HY       HAL2     0.900000E-01   1.00800           0
      9828 MEMB     74       POPC     O31      OSL     -0.490000       15.9994           0
      9829 MEMB     74       POPC     C31      CL       0.900000       12.0110           0
      9830 MEMB     74       POPC     O32      OBL     -0.630000       15.9994           0
      9831 MEMB     74       POPC     C32      CTL2    -0.220000       12.0110           0
      9832 MEMB     74       POPC     H2X      HAL2     0.900000E-01   1.00800           0
      9833 MEMB     74       POPC     H2Y      HAL2     0.900000E-01   1.00800           0
      9834 MEMB     74       POPC     C23      CTL2    -0.180000       12.0110           0
      9835 MEMB     74       POPC     H3R      HAL2     0.900000E-01   1.00800           0
      9836 MEMB     74       POPC     H3S      HAL2     0.900000E-01   1.00800           0
      9837 MEMB     74       POPC     C24      CTL2    -0.180000       12.0110           0
      9838 MEMB     74       POPC     H4R      HAL2     0.900000E-01   1.00800           0
      9839 MEMB     74       POPC     H4S      HAL2     0.900000E-01   1.00800           0
      9840 MEMB     74       POPC     C25      CTL2    -0.180000       12.0110           0
      9841 MEMB     74       POPC     H5R      HAL2     0.900000E-01   1.00800           0
      9842 MEMB     74       POPC     H5S      HAL2     0.900000E-01   1.00800           0
      9843 MEMB     74       POPC     C26      CTL2    -0.180000       12.0110           0
      9844 MEMB     74       POPC     H6R      HAL2     0.900000E-01   1.00800           0
      9845 MEMB     74       POPC     H6S      HAL2     0.900000E-01   1.00800           0
      9846 MEMB     74       POPC     C27      CTL2    -0.180000       12.0110           0
      9847 MEMB     74       POPC     H7R      HAL2     0.900000E-01   1.00800           0
      9848 MEMB     74       POPC     H7S      HAL2     0.900000E-01   1.00800           0
      9849 MEMB     74       POPC     C28      CTL2    -0.180000       12.0110           0
      9850 MEMB     74       POPC     H8R      HAL2     0.900000E-01   1.00800           0
      9851 MEMB     74       POPC     H8S      HAL2     0.900000E-01   1.00800           0
      9852 MEMB     74       POPC     C29      CEL1    -0.150000       12.0110           0
      9853 MEMB     74       POPC     H91      HEL1     0.150000       1.00800           0
      9854 MEMB     74       POPC     C210     CEL1    -0.150000       12.0110           0
      9855 MEMB     74       POPC     H101     HEL1     0.150000       1.00800           0
      9856 MEMB     74       POPC     C211     CTL2    -0.180000       12.0110           0
      9857 MEMB     74       POPC     H11R     HAL2     0.900000E-01   1.00800           0
      9858 MEMB     74       POPC     H11S     HAL2     0.900000E-01   1.00800           0
      9859 MEMB     74       POPC     C212     CTL2    -0.180000       12.0110           0
      9860 MEMB     74       POPC     H12R     HAL2     0.900000E-01   1.00800           0
      9861 MEMB     74       POPC     H12S     HAL2     0.900000E-01   1.00800           0
      9862 MEMB     74       POPC     C213     CTL2    -0.180000       12.0110           0
      9863 MEMB     74       POPC     H13R     HAL2     0.900000E-01   1.00800           0
      9864 MEMB     74       POPC     H13S     HAL2     0.900000E-01   1.00800           0
      9865 MEMB     74       POPC     C214     CTL2    -0.180000       12.0110           0
      9866 MEMB     74       POPC     H14R     HAL2     0.900000E-01   1.00800           0
      9867 MEMB     74       POPC     H14S     HAL2     0.900000E-01   1.00800           0
      9868 MEMB     74       POPC     C215     CTL2    -0.180000       12.0110           0
      9869 MEMB     74       POPC     H15R     HAL2     0.900000E-01   1.00800           0
      9870 MEMB     74       POPC     H15S     HAL2     0.900000E-01   1.00800           0
      9871 MEMB     74       POPC     C216     CTL2    -0.180000       12.0110           0
      9872 MEMB     74       POPC     H16R     HAL2     0.900000E-01   1.00800           0
      9873 MEMB     74       POPC     H16S     HAL2     0.900000E-01   1.00800           0
      9874 MEMB     74       POPC     C217     CTL2    -0.180000       12.0110           0
      9875 MEMB     74       POPC     H17R     HAL2     0.900000E-01   1.00800           0
      9876 MEMB     74       POPC     H17S     HAL2     0.900000E-01   1.00800           0
      9877 MEMB     74       POPC     C218     CTL3    -0.270000       12.0110           0
      9878 MEMB     74       POPC     H18R     HAL3     0.900000E-01   1.00800           0
      9879 MEMB     74       POPC     H18S     HAL3     0.900000E-01   1.00800           0
      9880 MEMB     74       POPC     H18T     HAL3     0.900000E-01   1.00800           0
      9881 MEMB     74       POPC     C33      CTL2    -0.180000       12.0110           0
      9882 MEMB     74       POPC     H3X      HAL2     0.900000E-01   1.00800           0
      9883 MEMB     74       POPC     H3Y      HAL2     0.900000E-01   1.00800           0
      9884 MEMB     74       POPC     C34      CTL2    -0.180000       12.0110           0
      9885 MEMB     74       POPC     H4X      HAL2     0.900000E-01   1.00800           0
      9886 MEMB     74       POPC     H4Y      HAL2     0.900000E-01   1.00800           0
      9887 MEMB     74       POPC     C35      CTL2    -0.180000       12.0110           0
      9888 MEMB     74       POPC     H5X      HAL2     0.900000E-01   1.00800           0
      9889 MEMB     74       POPC     H5Y      HAL2     0.900000E-01   1.00800           0
      9890 MEMB     74       POPC     C36      CTL2    -0.180000       12.0110           0
      9891 MEMB     74       POPC     H6X      HAL2     0.900000E-01   1.00800           0
      9892 MEMB     74       POPC     H6Y      HAL2     0.900000E-01   1.00800           0
      9893 MEMB     74       POPC     C37      CTL2    -0.180000       12.0110           0
      9894 MEMB     74       POPC     H7X      HAL2     0.900000E-01   1.00800           0
      9895 MEMB     74       POPC     H7Y      HAL2     0.900000E-01   1.00800           0
      9896 MEMB     74       POPC     C38      CTL2    -0.180000       12.0110           0
      9897 MEMB     74       POPC     H8X      HAL2     0.900000E-01   1.00800           0
      9898 MEMB     74       POPC     H8Y      HAL2     0.900000E-01   1.00800           0
      9899 MEMB     74       POPC     C39      CTL2    -0.180000       12.0110           0
      9900 MEMB     74       POPC     H9X      HAL2     0.900000E-01   1.00800           0
      9901 MEMB     74       POPC     H9Y      HAL2     0.900000E-01   1.00800           0
      9902 MEMB     74       POPC     C310     CTL2    -0.180000       12.0110           0
      9903 MEMB     74       POPC     H10X     HAL2     0.900000E-01   1.00800           0
      9904 MEMB     74       POPC     H10Y     HAL2     0.900000E-01   1.00800           0
      9905 MEMB     74       POPC     C311     CTL2    -0.180000       12.0110           0
      9906 MEMB     74       POPC     H11X     HAL2     0.900000E-01   1.00800           0
      9907 MEMB     74       POPC     H11Y     HAL2     0.900000E-01   1.00800           0
      9908 MEMB     74       POPC     C312     CTL2    -0.180000       12.0110           0
      9909 MEMB     74       POPC     H12X     HAL2     0.900000E-01   1.00800           0
      9910 MEMB     74       POPC     H12Y     HAL2     0.900000E-01   1.00800           0
      9911 MEMB     74       POPC     C313     CTL2    -0.180000       12.0110           0
      9912 MEMB     74       POPC     H13X     HAL2     0.900000E-01   1.00800           0
      9913 MEMB     74       POPC     H13Y     HAL2     0.900000E-01   1.00800           0
      9914 MEMB     74       POPC     C314     CTL2    -0.180000       12.0110           0
      9915 MEMB     74       POPC     H14X     HAL2     0.900000E-01   1.00800           0
      9916 MEMB     74       POPC     H14Y     HAL2     0.900000E-01   1.00800           0
      9917 MEMB     74       POPC     C315     CTL2    -0.180000       12.0110           0
      9918 MEMB     74       POPC     H15X     HAL2     0.900000E-01   1.00800           0
      9919 MEMB     74       POPC     H15Y     HAL2     0.900000E-01   1.00800           0
      9920 MEMB     74       POPC     C316     CTL3    -0.270000       12.0110           0
      9921 MEMB     74       POPC     H16X     HAL3     0.900000E-01   1.00800           0
      9922 MEMB     74       POPC     H16Y     HAL3     0.900000E-01   1.00800           0
      9923 MEMB     74       POPC     H16Z     HAL3     0.900000E-01   1.00800           0
      9924 MEMB     75       POPC     N        NTL     -0.600000       14.0070           0
      9925 MEMB     75       POPC     C12      CTL2    -0.100000       12.0110           0
      9926 MEMB     75       POPC     H12A     HL       0.250000       1.00800           0
      9927 MEMB     75       POPC     H12B     HL       0.250000       1.00800           0
      9928 MEMB     75       POPC     C13      CTL5    -0.350000       12.0110           0
      9929 MEMB     75       POPC     H13A     HL       0.250000       1.00800           0
      9930 MEMB     75       POPC     H13B     HL       0.250000       1.00800           0
      9931 MEMB     75       POPC     H13C     HL       0.250000       1.00800           0
      9932 MEMB     75       POPC     C14      CTL5    -0.350000       12.0110           0
      9933 MEMB     75       POPC     H14A     HL       0.250000       1.00800           0
      9934 MEMB     75       POPC     H14B     HL       0.250000       1.00800           0
      9935 MEMB     75       POPC     H14C     HL       0.250000       1.00800           0
      9936 MEMB     75       POPC     C15      CTL5    -0.350000       12.0110           0
      9937 MEMB     75       POPC     H15A     HL       0.250000       1.00800           0
      9938 MEMB     75       POPC     H15B     HL       0.250000       1.00800           0
      9939 MEMB     75       POPC     H15C     HL       0.250000       1.00800           0
      9940 MEMB     75       POPC     C11      CTL2    -0.800000E-01   12.0110           0
      9941 MEMB     75       POPC     H11A     HAL2     0.900000E-01   1.00800           0
      9942 MEMB     75       POPC     H11B     HAL2     0.900000E-01   1.00800           0
      9943 MEMB     75       POPC     P        PL       1.500000       30.9740           0
      9944 MEMB     75       POPC     O13      O2L     -0.780000       15.9994           0
      9945 MEMB     75       POPC     O14      O2L     -0.780000       15.9994           0
      9946 MEMB     75       POPC     O12      OSLP    -0.570000       15.9994           0
      9947 MEMB     75       POPC     O11      OSLP    -0.570000       15.9994           0
      9948 MEMB     75       POPC     C1       CTL2    -0.800000E-01   12.0110           0
      9949 MEMB     75       POPC     HA       HAL2     0.900000E-01   1.00800           0
      9950 MEMB     75       POPC     HB       HAL2     0.900000E-01   1.00800           0
      9951 MEMB     75       POPC     C2       CTL1     0.170000       12.0110           0
      9952 MEMB     75       POPC     HS       HAL1     0.900000E-01   1.00800           0
      9953 MEMB     75       POPC     O21      OSL     -0.490000       15.9994           0
      9954 MEMB     75       POPC     C21      CL       0.900000       12.0110           0
      9955 MEMB     75       POPC     O22      OBL     -0.630000       15.9994           0
      9956 MEMB     75       POPC     C22      CTL2    -0.220000       12.0110           0
      9957 MEMB     75       POPC     H2R      HAL2     0.900000E-01   1.00800           0
      9958 MEMB     75       POPC     H2S      HAL2     0.900000E-01   1.00800           0
      9959 MEMB     75       POPC     C3       CTL2     0.800000E-01   12.0110           0
      9960 MEMB     75       POPC     HX       HAL2     0.900000E-01   1.00800           0
      9961 MEMB     75       POPC     HY       HAL2     0.900000E-01   1.00800           0
      9962 MEMB     75       POPC     O31      OSL     -0.490000       15.9994           0
      9963 MEMB     75       POPC     C31      CL       0.900000       12.0110           0
      9964 MEMB     75       POPC     O32      OBL     -0.630000       15.9994           0
      9965 MEMB     75       POPC     C32      CTL2    -0.220000       12.0110           0
      9966 MEMB     75       POPC     H2X      HAL2     0.900000E-01   1.00800           0
      9967 MEMB     75       POPC     H2Y      HAL2     0.900000E-01   1.00800           0
      9968 MEMB     75       POPC     C23      CTL2    -0.180000       12.0110           0
      9969 MEMB     75       POPC     H3R      HAL2     0.900000E-01   1.00800           0
      9970 MEMB     75       POPC     H3S      HAL2     0.900000E-01   1.00800           0
      9971 MEMB     75       POPC     C24      CTL2    -0.180000       12.0110           0
      9972 MEMB     75       POPC     H4R      HAL2     0.900000E-01   1.00800           0
      9973 MEMB     75       POPC     H4S      HAL2     0.900000E-01   1.00800           0
      9974 MEMB     75       POPC     C25      CTL2    -0.180000       12.0110           0
      9975 MEMB     75       POPC     H5R      HAL2     0.900000E-01   1.00800           0
      9976 MEMB     75       POPC     H5S      HAL2     0.900000E-01   1.00800           0
      9977 MEMB     75       POPC     C26      CTL2    -0.180000       12.0110           0
      9978 MEMB     75       POPC     H6R      HAL2     0.900000E-01   1.00800           0
      9979 MEMB     75       POPC     H6S      HAL2     0.900000E-01   1.00800           0
      9980 MEMB     75       POPC     C27      CTL2    -0.180000       12.0110           0
      9981 MEMB     75       POPC     H7R      HAL2     0.900000E-01   1.00800           0
      9982 MEMB     75       POPC     H7S      HAL2     0.900000E-01   1.00800           0
      9983 MEMB     75       POPC     C28      CTL2    -0.180000       12.0110           0
      9984 MEMB     75       POPC     H8R      HAL2     0.900000E-01   1.00800           0
      9985 MEMB     75       POPC     H8S      HAL2     0.900000E-01   1.00800           0
      9986 MEMB     75       POPC     C29      CEL1    -0.150000       12.0110           0
      9987 MEMB     75       POPC     H91      HEL1     0.150000       1.00800           0
      9988 MEMB     75       POPC     C210     CEL1    -0.150000       12.0110           0
      9989 MEMB     75       POPC     H101     HEL1     0.150000       1.00800           0
      9990 MEMB     75       POPC     C211     CTL2    -0.180000       12.0110           0
      9991 MEMB     75       POPC     H11R     HAL2     0.900000E-01   1.00800           0
      9992 MEMB     75       POPC     H11S     HAL2     0.900000E-01   1.00800           0
      9993 MEMB     75       POPC     C212     CTL2    -0.180000       12.0110           0
      9994 MEMB     75       POPC     H12R     HAL2     0.900000E-01   1.00800           0
      9995 MEMB     75       POPC     H12S     HAL2     0.900000E-01   1.00800           0
      9996 MEMB     75       POPC     C213     CTL2    -0.180000       12.0110           0
      9997 MEMB     75       POPC     H13R     HAL2     0.900000E-01   1.00800           0
      9998 MEMB     75       POPC     H13S     HAL2     0.900000E-01   1.00800           0
      9999 MEMB     75       POPC     C214     CTL2    -0.180000       12.0110           0
     10000 MEMB     75       POPC     H14R     HAL2     0.900000E-01   1.00800           0
     10001 MEMB     75       POPC     H14S     HAL2     0.900000E-01   1.00800           0
     10002 MEMB     75       POPC     C215     CTL2    -0.180000       12.0110           0
     10003 MEMB     75       POPC     H15R     HAL2     0.900000E-01   1.00800           0
     10004 MEMB     75       POPC     H15S     HAL2     0.900000E-01   1.00800           0
     10005 MEMB     75       POPC     C216     CTL2    -0.180000       12.0110           0
     10006 MEMB     75       POPC     H16R     HAL2     0.900000E-01   1.00800           0
     10007 MEMB     75       POPC     H16S     HAL2     0.900000E-01   1.00800           0
     10008 MEMB     75       POPC     C217     CTL2    -0.180000       12.0110           0
     10009 MEMB     75       POPC     H17R     HAL2     0.900000E-01   1.00800           0
     10010 MEMB     75       POPC     H17S     HAL2     0.900000E-01   1.00800           0
     10011 MEMB     75       POPC     C218     CTL3    -0.270000       12.0110           0
     10012 MEMB     75       POPC     H18R     HAL3     0.900000E-01   1.00800           0
     10013 MEMB     75       POPC     H18S     HAL3     0.900000E-01   1.00800           0
     10014 MEMB     75       POPC     H18T     HAL3     0.900000E-01   1.00800           0
     10015 MEMB     75       POPC     C33      CTL2    -0.180000       12.0110           0
     10016 MEMB     75       POPC     H3X      HAL2     0.900000E-01   1.00800           0
     10017 MEMB     75       POPC     H3Y      HAL2     0.900000E-01   1.00800           0
     10018 MEMB     75       POPC     C34      CTL2    -0.180000       12.0110           0
     10019 MEMB     75       POPC     H4X      HAL2     0.900000E-01   1.00800           0
     10020 MEMB     75       POPC     H4Y      HAL2     0.900000E-01   1.00800           0
     10021 MEMB     75       POPC     C35      CTL2    -0.180000       12.0110           0
     10022 MEMB     75       POPC     H5X      HAL2     0.900000E-01   1.00800           0
     10023 MEMB     75       POPC     H5Y      HAL2     0.900000E-01   1.00800           0
     10024 MEMB     75       POPC     C36      CTL2    -0.180000       12.0110           0
     10025 MEMB     75       POPC     H6X      HAL2     0.900000E-01   1.00800           0
     10026 MEMB     75       POPC     H6Y      HAL2     0.900000E-01   1.00800           0
     10027 MEMB     75       POPC     C37      CTL2    -0.180000       12.0110           0
     10028 MEMB     75       POPC     H7X      HAL2     0.900000E-01   1.00800           0
     10029 MEMB     75       POPC     H7Y      HAL2     0.900000E-01   1.00800           0
     10030 MEMB     75       POPC     C38      CTL2    -0.180000       12.0110           0
     10031 MEMB     75       POPC     H8X      HAL2     0.900000E-01   1.00800           0
     10032 MEMB     75       POPC     H8Y      HAL2     0.900000E-01   1.00800           0
     10033 MEMB     75       POPC     C39      CTL2    -0.180000       12.0110           0
     10034 MEMB     75       POPC     H9X      HAL2     0.900000E-01   1.00800           0
     10035 MEMB     75       POPC     H9Y      HAL2     0.900000E-01   1.00800           0
     10036 MEMB     75       POPC     C310     CTL2    -0.180000       12.0110           0
     10037 MEMB     75       POPC     H10X     HAL2     0.900000E-01   1.00800           0
     10038 MEMB     75       POPC     H10Y     HAL2     0.900000E-01   1.00800           0
     10039 MEMB     75       POPC     C311     CTL2    -0.180000       12.0110           0
     10040 MEMB     75       POPC     H11X     HAL2     0.900000E-01   1.00800           0
     10041 MEMB     75       POPC     H11Y     HAL2     0.900000E-01   1.00800           0
     10042 MEMB     75       POPC     C312     CTL2    -0.180000       12.0110           0
     10043 MEMB     75       POPC     H12X     HAL2     0.900000E-01   1.00800           0
     10044 MEMB     75       POPC     H12Y     HAL2     0.900000E-01   1.00800           0
     10045 MEMB     75       POPC     C313     CTL2    -0.180000       12.0110           0
     10046 MEMB     75       POPC     H13X     HAL2     0.900000E-01   1.00800           0
     10047 MEMB     75       POPC     H13Y     HAL2     0.900000E-01   1.00800           0
     10048 MEMB     75       POPC     C314     CTL2    -0.180000       12.0110           0
     10049 MEMB     75       POPC     H14X     HAL2     0.900000E-01   1.00800           0
     10050 MEMB     75       POPC     H14Y     HAL2     0.900000E-01   1.00800           0
     10051 MEMB     75       POPC     C315     CTL2    -0.180000       12.0110           0
     10052 MEMB     75       POPC     H15X     HAL2     0.900000E-01   1.00800           0
     10053 MEMB     75       POPC     H15Y     HAL2     0.900000E-01   1.00800           0
     10054 MEMB     75       POPC     C316     CTL3    -0.270000       12.0110           0
     10055 MEMB     75       POPC     H16X     HAL3     0.900000E-01   1.00800           0
     10056 MEMB     75       POPC     H16Y     HAL3     0.900000E-01   1.00800           0
     10057 MEMB     75       POPC     H16Z     HAL3     0.900000E-01   1.00800           0
     10058 MEMB     76       POPS     N        NH3L    -0.300000       14.0070           0
     10059 MEMB     76       POPS     HN1      HCL      0.330000       1.00800           0
     10060 MEMB     76       POPS     HN2      HCL      0.330000       1.00800           0
     10061 MEMB     76       POPS     HN3      HCL      0.330000       1.00800           0
     10062 MEMB     76       POPS     C12      CTL1     0.210000       12.0110           0
     10063 MEMB     76       POPS     H12A     HBL      0.100000       1.00800           0
     10064 MEMB     76       POPS     C13      CCL      0.340000       12.0110           0
     10065 MEMB     76       POPS     O13A     OCL     -0.670000       15.9994           0
     10066 MEMB     76       POPS     O13B     OCL     -0.670000       15.9994           0
     10067 MEMB     76       POPS     C11      CTL2    -0.800000E-01   12.0110           0
     10068 MEMB     76       POPS     H11A     HAL2     0.900000E-01   1.00800           0
     10069 MEMB     76       POPS     H11B     HAL2     0.900000E-01   1.00800           0
     10070 MEMB     76       POPS     P        PL       1.500000       30.9740           0
     10071 MEMB     76       POPS     O13      O2L     -0.780000       15.9994           0
     10072 MEMB     76       POPS     O14      O2L     -0.780000       15.9994           0
     10073 MEMB     76       POPS     O12      OSLP    -0.570000       15.9994           0
     10074 MEMB     76       POPS     O11      OSLP    -0.570000       15.9994           0
     10075 MEMB     76       POPS     C1       CTL2    -0.800000E-01   12.0110           0
     10076 MEMB     76       POPS     HA       HAL2     0.900000E-01   1.00800           0
     10077 MEMB     76       POPS     HB       HAL2     0.900000E-01   1.00800           0
     10078 MEMB     76       POPS     C2       CTL1     0.170000       12.0110           0
     10079 MEMB     76       POPS     HS       HAL1     0.900000E-01   1.00800           0
     10080 MEMB     76       POPS     O21      OSL     -0.490000       15.9994           0
     10081 MEMB     76       POPS     C21      CL       0.900000       12.0110           0
     10082 MEMB     76       POPS     O22      OBL     -0.630000       15.9994           0
     10083 MEMB     76       POPS     C22      CTL2    -0.220000       12.0110           0
     10084 MEMB     76       POPS     H2R      HAL2     0.900000E-01   1.00800           0
     10085 MEMB     76       POPS     H2S      HAL2     0.900000E-01   1.00800           0
     10086 MEMB     76       POPS     C3       CTL2     0.800000E-01   12.0110           0
     10087 MEMB     76       POPS     HX       HAL2     0.900000E-01   1.00800           0
     10088 MEMB     76       POPS     HY       HAL2     0.900000E-01   1.00800           0
     10089 MEMB     76       POPS     O31      OSL     -0.490000       15.9994           0
     10090 MEMB     76       POPS     C31      CL       0.900000       12.0110           0
     10091 MEMB     76       POPS     O32      OBL     -0.630000       15.9994           0
     10092 MEMB     76       POPS     C32      CTL2    -0.220000       12.0110           0
     10093 MEMB     76       POPS     H2X      HAL2     0.900000E-01   1.00800           0
     10094 MEMB     76       POPS     H2Y      HAL2     0.900000E-01   1.00800           0
     10095 MEMB     76       POPS     C23      CTL2    -0.180000       12.0110           0
     10096 MEMB     76       POPS     H3R      HAL2     0.900000E-01   1.00800           0
     10097 MEMB     76       POPS     H3S      HAL2     0.900000E-01   1.00800           0
     10098 MEMB     76       POPS     C24      CTL2    -0.180000       12.0110           0
     10099 MEMB     76       POPS     H4R      HAL2     0.900000E-01   1.00800           0
     10100 MEMB     76       POPS     H4S      HAL2     0.900000E-01   1.00800           0
     10101 MEMB     76       POPS     C25      CTL2    -0.180000       12.0110           0
     10102 MEMB     76       POPS     H5R      HAL2     0.900000E-01   1.00800           0
     10103 MEMB     76       POPS     H5S      HAL2     0.900000E-01   1.00800           0
     10104 MEMB     76       POPS     C26      CTL2    -0.180000       12.0110           0
     10105 MEMB     76       POPS     H6R      HAL2     0.900000E-01   1.00800           0
     10106 MEMB     76       POPS     H6S      HAL2     0.900000E-01   1.00800           0
     10107 MEMB     76       POPS     C27      CTL2    -0.180000       12.0110           0
     10108 MEMB     76       POPS     H7R      HAL2     0.900000E-01   1.00800           0
     10109 MEMB     76       POPS     H7S      HAL2     0.900000E-01   1.00800           0
     10110 MEMB     76       POPS     C28      CTL2    -0.180000       12.0110           0
     10111 MEMB     76       POPS     H8R      HAL2     0.900000E-01   1.00800           0
     10112 MEMB     76       POPS     H8S      HAL2     0.900000E-01   1.00800           0
     10113 MEMB     76       POPS     C29      CEL1    -0.150000       12.0110           0
     10114 MEMB     76       POPS     H91      HEL1     0.150000       1.00800           0
     10115 MEMB     76       POPS     C210     CEL1    -0.150000       12.0110           0
     10116 MEMB     76       POPS     H101     HEL1     0.150000       1.00800           0
     10117 MEMB     76       POPS     C211     CTL2    -0.180000       12.0110           0
     10118 MEMB     76       POPS     H11R     HAL2     0.900000E-01   1.00800           0
     10119 MEMB     76       POPS     H11S     HAL2     0.900000E-01   1.00800           0
     10120 MEMB     76       POPS     C212     CTL2    -0.180000       12.0110           0
     10121 MEMB     76       POPS     H12R     HAL2     0.900000E-01   1.00800           0
     10122 MEMB     76       POPS     H12S     HAL2     0.900000E-01   1.00800           0
     10123 MEMB     76       POPS     C213     CTL2    -0.180000       12.0110           0
     10124 MEMB     76       POPS     H13R     HAL2     0.900000E-01   1.00800           0
     10125 MEMB     76       POPS     H13S     HAL2     0.900000E-01   1.00800           0
     10126 MEMB     76       POPS     C214     CTL2    -0.180000       12.0110           0
     10127 MEMB     76       POPS     H14R     HAL2     0.900000E-01   1.00800           0
     10128 MEMB     76       POPS     H14S     HAL2     0.900000E-01   1.00800           0
     10129 MEMB     76       POPS     C215     CTL2    -0.180000       12.0110           0
     10130 MEMB     76       POPS     H15R     HAL2     0.900000E-01   1.00800           0
     10131 MEMB     76       POPS     H15S     HAL2     0.900000E-01   1.00800           0
     10132 MEMB     76       POPS     C216     CTL2    -0.180000       12.0110           0
     10133 MEMB     76       POPS     H16R     HAL2     0.900000E-01   1.00800           0
     10134 MEMB     76       POPS     H16S     HAL2     0.900000E-01   1.00800           0
     10135 MEMB     76       POPS     C217     CTL2    -0.180000       12.0110           0
     10136 MEMB     76       POPS     H17R     HAL2     0.900000E-01   1.00800           0
     10137 MEMB     76       POPS     H17S     HAL2     0.900000E-01   1.00800           0
     10138 MEMB     76       POPS     C218     CTL3    -0.270000       12.0110           0
     10139 MEMB     76       POPS     H18R     HAL3     0.900000E-01   1.00800           0
     10140 MEMB     76       POPS     H18S     HAL3     0.900000E-01   1.00800           0
     10141 MEMB     76       POPS     H18T     HAL3     0.900000E-01   1.00800           0
     10142 MEMB     76       POPS     C33      CTL2    -0.180000       12.0110           0
     10143 MEMB     76       POPS     H3X      HAL2     0.900000E-01   1.00800           0
     10144 MEMB     76       POPS     H3Y      HAL2     0.900000E-01   1.00800           0
     10145 MEMB     76       POPS     C34      CTL2    -0.180000       12.0110           0
     10146 MEMB     76       POPS     H4X      HAL2     0.900000E-01   1.00800           0
     10147 MEMB     76       POPS     H4Y      HAL2     0.900000E-01   1.00800           0
     10148 MEMB     76       POPS     C35      CTL2    -0.180000       12.0110           0
     10149 MEMB     76       POPS     H5X      HAL2     0.900000E-01   1.00800           0
     10150 MEMB     76       POPS     H5Y      HAL2     0.900000E-01   1.00800           0
     10151 MEMB     76       POPS     C36      CTL2    -0.180000       12.0110           0
     10152 MEMB     76       POPS     H6X      HAL2     0.900000E-01   1.00800           0
     10153 MEMB     76       POPS     H6Y      HAL2     0.900000E-01   1.00800           0
     10154 MEMB     76       POPS     C37      CTL2    -0.180000       12.0110           0
     10155 MEMB     76       POPS     H7X      HAL2     0.900000E-01   1.00800           0
     10156 MEMB     76       POPS     H7Y      HAL2     0.900000E-01   1.00800           0
     10157 MEMB     76       POPS     C38      CTL2    -0.180000       12.0110           0
     10158 MEMB     76       POPS     H8X      HAL2     0.900000E-01   1.00800           0
     10159 MEMB     76       POPS     H8Y      HAL2     0.900000E-01   1.00800           0
     10160 MEMB     76       POPS     C39      CTL2    -0.180000       12.0110           0
     10161 MEMB     76       POPS     H9X      HAL2     0.900000E-01   1.00800           0
     10162 MEMB     76       POPS     H9Y      HAL2     0.900000E-01   1.00800           0
     10163 MEMB     76       POPS     C310     CTL2    -0.180000       12.0110           0
     10164 MEMB     76       POPS     H10X     HAL2     0.900000E-01   1.00800           0
     10165 MEMB     76       POPS     H10Y     HAL2     0.900000E-01   1.00800           0
     10166 MEMB     76       POPS     C311     CTL2    -0.180000       12.0110           0
     10167 MEMB     76       POPS     H11X     HAL2     0.900000E-01   1.00800           0
     10168 MEMB     76       POPS     H11Y     HAL2     0.900000E-01   1.00800           0
     10169 MEMB     76       POPS     C312     CTL2    -0.180000       12.0110           0
     10170 MEMB     76       POPS     H12X     HAL2     0.900000E-01   1.00800           0
     10171 MEMB     76       POPS     H12Y     HAL2     0.900000E-01   1.00800           0
     10172 MEMB     76       POPS     C313     CTL2    -0.180000       12.0110           0
     10173 MEMB     76       POPS     H13X     HAL2     0.900000E-01   1.00800           0
     10174 MEMB     76       POPS     H13Y     HAL2     0.900000E-01   1.00800           0
     10175 MEMB     76       POPS     C314     CTL2    -0.180000       12.0110           0
     10176 MEMB     76       POPS     H14X     HAL2     0.900000E-01   1.00800           0
     10177 MEMB     76       POPS     H14Y     HAL2     0.900000E-01   1.00800           0
     10178 MEMB     76       POPS     C315     CTL2    -0.180000       12.0110           0
     10179 MEMB     76       POPS     H15X     HAL2     0.900000E-01   1.00800           0
     10180 MEMB     76       POPS     H15Y     HAL2     0.900000E-01   1.00800           0
     10181 MEMB     76       POPS     C316     CTL3    -0.270000       12.0110           0
     10182 MEMB     76       POPS     H16X     HAL3     0.900000E-01   1.00800           0
     10183 MEMB     76       POPS     H16Y     HAL3     0.900000E-01   1.00800           0
     10184 MEMB     76       POPS     H16Z     HAL3     0.900000E-01   1.00800           0
     10185 MEMB     77       POPC     N        NTL     -0.600000       14.0070           0
     10186 MEMB     77       POPC     C12      CTL2    -0.100000       12.0110           0
     10187 MEMB     77       POPC     H12A     HL       0.250000       1.00800           0
     10188 MEMB     77       POPC     H12B     HL       0.250000       1.00800           0
     10189 MEMB     77       POPC     C13      CTL5    -0.350000       12.0110           0
     10190 MEMB     77       POPC     H13A     HL       0.250000       1.00800           0
     10191 MEMB     77       POPC     H13B     HL       0.250000       1.00800           0
     10192 MEMB     77       POPC     H13C     HL       0.250000       1.00800           0
     10193 MEMB     77       POPC     C14      CTL5    -0.350000       12.0110           0
     10194 MEMB     77       POPC     H14A     HL       0.250000       1.00800           0
     10195 MEMB     77       POPC     H14B     HL       0.250000       1.00800           0
     10196 MEMB     77       POPC     H14C     HL       0.250000       1.00800           0
     10197 MEMB     77       POPC     C15      CTL5    -0.350000       12.0110           0
     10198 MEMB     77       POPC     H15A     HL       0.250000       1.00800           0
     10199 MEMB     77       POPC     H15B     HL       0.250000       1.00800           0
     10200 MEMB     77       POPC     H15C     HL       0.250000       1.00800           0
     10201 MEMB     77       POPC     C11      CTL2    -0.800000E-01   12.0110           0
     10202 MEMB     77       POPC     H11A     HAL2     0.900000E-01   1.00800           0
     10203 MEMB     77       POPC     H11B     HAL2     0.900000E-01   1.00800           0
     10204 MEMB     77       POPC     P        PL       1.500000       30.9740           0
     10205 MEMB     77       POPC     O13      O2L     -0.780000       15.9994           0
     10206 MEMB     77       POPC     O14      O2L     -0.780000       15.9994           0
     10207 MEMB     77       POPC     O12      OSLP    -0.570000       15.9994           0
     10208 MEMB     77       POPC     O11      OSLP    -0.570000       15.9994           0
     10209 MEMB     77       POPC     C1       CTL2    -0.800000E-01   12.0110           0
     10210 MEMB     77       POPC     HA       HAL2     0.900000E-01   1.00800           0
     10211 MEMB     77       POPC     HB       HAL2     0.900000E-01   1.00800           0
     10212 MEMB     77       POPC     C2       CTL1     0.170000       12.0110           0
     10213 MEMB     77       POPC     HS       HAL1     0.900000E-01   1.00800           0
     10214 MEMB     77       POPC     O21      OSL     -0.490000       15.9994           0
     10215 MEMB     77       POPC     C21      CL       0.900000       12.0110           0
     10216 MEMB     77       POPC     O22      OBL     -0.630000       15.9994           0
     10217 MEMB     77       POPC     C22      CTL2    -0.220000       12.0110           0
     10218 MEMB     77       POPC     H2R      HAL2     0.900000E-01   1.00800           0
     10219 MEMB     77       POPC     H2S      HAL2     0.900000E-01   1.00800           0
     10220 MEMB     77       POPC     C3       CTL2     0.800000E-01   12.0110           0
     10221 MEMB     77       POPC     HX       HAL2     0.900000E-01   1.00800           0
     10222 MEMB     77       POPC     HY       HAL2     0.900000E-01   1.00800           0
     10223 MEMB     77       POPC     O31      OSL     -0.490000       15.9994           0
     10224 MEMB     77       POPC     C31      CL       0.900000       12.0110           0
     10225 MEMB     77       POPC     O32      OBL     -0.630000       15.9994           0
     10226 MEMB     77       POPC     C32      CTL2    -0.220000       12.0110           0
     10227 MEMB     77       POPC     H2X      HAL2     0.900000E-01   1.00800           0
     10228 MEMB     77       POPC     H2Y      HAL2     0.900000E-01   1.00800           0
     10229 MEMB     77       POPC     C23      CTL2    -0.180000       12.0110           0
     10230 MEMB     77       POPC     H3R      HAL2     0.900000E-01   1.00800           0
     10231 MEMB     77       POPC     H3S      HAL2     0.900000E-01   1.00800           0
     10232 MEMB     77       POPC     C24      CTL2    -0.180000       12.0110           0
     10233 MEMB     77       POPC     H4R      HAL2     0.900000E-01   1.00800           0
     10234 MEMB     77       POPC     H4S      HAL2     0.900000E-01   1.00800           0
     10235 MEMB     77       POPC     C25      CTL2    -0.180000       12.0110           0
     10236 MEMB     77       POPC     H5R      HAL2     0.900000E-01   1.00800           0
     10237 MEMB     77       POPC     H5S      HAL2     0.900000E-01   1.00800           0
     10238 MEMB     77       POPC     C26      CTL2    -0.180000       12.0110           0
     10239 MEMB     77       POPC     H6R      HAL2     0.900000E-01   1.00800           0
     10240 MEMB     77       POPC     H6S      HAL2     0.900000E-01   1.00800           0
     10241 MEMB     77       POPC     C27      CTL2    -0.180000       12.0110           0
     10242 MEMB     77       POPC     H7R      HAL2     0.900000E-01   1.00800           0
     10243 MEMB     77       POPC     H7S      HAL2     0.900000E-01   1.00800           0
     10244 MEMB     77       POPC     C28      CTL2    -0.180000       12.0110           0
     10245 MEMB     77       POPC     H8R      HAL2     0.900000E-01   1.00800           0
     10246 MEMB     77       POPC     H8S      HAL2     0.900000E-01   1.00800           0
     10247 MEMB     77       POPC     C29      CEL1    -0.150000       12.0110           0
     10248 MEMB     77       POPC     H91      HEL1     0.150000       1.00800           0
     10249 MEMB     77       POPC     C210     CEL1    -0.150000       12.0110           0
     10250 MEMB     77       POPC     H101     HEL1     0.150000       1.00800           0
     10251 MEMB     77       POPC     C211     CTL2    -0.180000       12.0110           0
     10252 MEMB     77       POPC     H11R     HAL2     0.900000E-01   1.00800           0
     10253 MEMB     77       POPC     H11S     HAL2     0.900000E-01   1.00800           0
     10254 MEMB     77       POPC     C212     CTL2    -0.180000       12.0110           0
     10255 MEMB     77       POPC     H12R     HAL2     0.900000E-01   1.00800           0
     10256 MEMB     77       POPC     H12S     HAL2     0.900000E-01   1.00800           0
     10257 MEMB     77       POPC     C213     CTL2    -0.180000       12.0110           0
     10258 MEMB     77       POPC     H13R     HAL2     0.900000E-01   1.00800           0
     10259 MEMB     77       POPC     H13S     HAL2     0.900000E-01   1.00800           0
     10260 MEMB     77       POPC     C214     CTL2    -0.180000       12.0110           0
     10261 MEMB     77       POPC     H14R     HAL2     0.900000E-01   1.00800           0
     10262 MEMB     77       POPC     H14S     HAL2     0.900000E-01   1.00800           0
     10263 MEMB     77       POPC     C215     CTL2    -0.180000       12.0110           0
     10264 MEMB     77       POPC     H15R     HAL2     0.900000E-01   1.00800           0
     10265 MEMB     77       POPC     H15S     HAL2     0.900000E-01   1.00800           0
     10266 MEMB     77       POPC     C216     CTL2    -0.180000       12.0110           0
     10267 MEMB     77       POPC     H16R     HAL2     0.900000E-01   1.00800           0
     10268 MEMB     77       POPC     H16S     HAL2     0.900000E-01   1.00800           0
     10269 MEMB     77       POPC     C217     CTL2    -0.180000       12.0110           0
     10270 MEMB     77       POPC     H17R     HAL2     0.900000E-01   1.00800           0
     10271 MEMB     77       POPC     H17S     HAL2     0.900000E-01   1.00800           0
     10272 MEMB     77       POPC     C218     CTL3    -0.270000       12.0110           0
     10273 MEMB     77       POPC     H18R     HAL3     0.900000E-01   1.00800           0
     10274 MEMB     77       POPC     H18S     HAL3     0.900000E-01   1.00800           0
     10275 MEMB     77       POPC     H18T     HAL3     0.900000E-01   1.00800           0
     10276 MEMB     77       POPC     C33      CTL2    -0.180000       12.0110           0
     10277 MEMB     77       POPC     H3X      HAL2     0.900000E-01   1.00800           0
     10278 MEMB     77       POPC     H3Y      HAL2     0.900000E-01   1.00800           0
     10279 MEMB     77       POPC     C34      CTL2    -0.180000       12.0110           0
     10280 MEMB     77       POPC     H4X      HAL2     0.900000E-01   1.00800           0
     10281 MEMB     77       POPC     H4Y      HAL2     0.900000E-01   1.00800           0
     10282 MEMB     77       POPC     C35      CTL2    -0.180000       12.0110           0
     10283 MEMB     77       POPC     H5X      HAL2     0.900000E-01   1.00800           0
     10284 MEMB     77       POPC     H5Y      HAL2     0.900000E-01   1.00800           0
     10285 MEMB     77       POPC     C36      CTL2    -0.180000       12.0110           0
     10286 MEMB     77       POPC     H6X      HAL2     0.900000E-01   1.00800           0
     10287 MEMB     77       POPC     H6Y      HAL2     0.900000E-01   1.00800           0
     10288 MEMB     77       POPC     C37      CTL2    -0.180000       12.0110           0
     10289 MEMB     77       POPC     H7X      HAL2     0.900000E-01   1.00800           0
     10290 MEMB     77       POPC     H7Y      HAL2     0.900000E-01   1.00800           0
     10291 MEMB     77       POPC     C38      CTL2    -0.180000       12.0110           0
     10292 MEMB     77       POPC     H8X      HAL2     0.900000E-01   1.00800           0
     10293 MEMB     77       POPC     H8Y      HAL2     0.900000E-01   1.00800           0
     10294 MEMB     77       POPC     C39      CTL2    -0.180000       12.0110           0
     10295 MEMB     77       POPC     H9X      HAL2     0.900000E-01   1.00800           0
     10296 MEMB     77       POPC     H9Y      HAL2     0.900000E-01   1.00800           0
     10297 MEMB     77       POPC     C310     CTL2    -0.180000       12.0110           0
     10298 MEMB     77       POPC     H10X     HAL2     0.900000E-01   1.00800           0
     10299 MEMB     77       POPC     H10Y     HAL2     0.900000E-01   1.00800           0
     10300 MEMB     77       POPC     C311     CTL2    -0.180000       12.0110           0
     10301 MEMB     77       POPC     H11X     HAL2     0.900000E-01   1.00800           0
     10302 MEMB     77       POPC     H11Y     HAL2     0.900000E-01   1.00800           0
     10303 MEMB     77       POPC     C312     CTL2    -0.180000       12.0110           0
     10304 MEMB     77       POPC     H12X     HAL2     0.900000E-01   1.00800           0
     10305 MEMB     77       POPC     H12Y     HAL2     0.900000E-01   1.00800           0
     10306 MEMB     77       POPC     C313     CTL2    -0.180000       12.0110           0
     10307 MEMB     77       POPC     H13X     HAL2     0.900000E-01   1.00800           0
     10308 MEMB     77       POPC     H13Y     HAL2     0.900000E-01   1.00800           0
     10309 MEMB     77       POPC     C314     CTL2    -0.180000       12.0110           0
     10310 MEMB     77       POPC     H14X     HAL2     0.900000E-01   1.00800           0
     10311 MEMB     77       POPC     H14Y     HAL2     0.900000E-01   1.00800           0
     10312 MEMB     77       POPC     C315     CTL2    -0.180000       12.0110           0
     10313 MEMB     77       POPC     H15X     HAL2     0.900000E-01   1.00800           0
     10314 MEMB     77       POPC     H15Y     HAL2     0.900000E-01   1.00800           0
     10315 MEMB     77       POPC     C316     CTL3    -0.270000       12.0110           0
     10316 MEMB     77       POPC     H16X     HAL3     0.900000E-01   1.00800           0
     10317 MEMB     77       POPC     H16Y     HAL3     0.900000E-01   1.00800           0
     10318 MEMB     77       POPC     H16Z     HAL3     0.900000E-01   1.00800           0
     10319 MEMB     78       POPS     N        NH3L    -0.300000       14.0070           0
     10320 MEMB     78       POPS     HN1      HCL      0.330000       1.00800           0
     10321 MEMB     78       POPS     HN2      HCL      0.330000       1.00800           0
     10322 MEMB     78       POPS     HN3      HCL      0.330000       1.00800           0
     10323 MEMB     78       POPS     C12      CTL1     0.210000       12.0110           0
     10324 MEMB     78       POPS     H12A     HBL      0.100000       1.00800           0
     10325 MEMB     78       POPS     C13      CCL      0.340000       12.0110           0
     10326 MEMB     78       POPS     O13A     OCL     -0.670000       15.9994           0
     10327 MEMB     78       POPS     O13B     OCL     -0.670000       15.9994           0
     10328 MEMB     78       POPS     C11      CTL2    -0.800000E-01   12.0110           0
     10329 MEMB     78       POPS     H11A     HAL2     0.900000E-01   1.00800           0
     10330 MEMB     78       POPS     H11B     HAL2     0.900000E-01   1.00800           0
     10331 MEMB     78       POPS     P        PL       1.500000       30.9740           0
     10332 MEMB     78       POPS     O13      O2L     -0.780000       15.9994           0
     10333 MEMB     78       POPS     O14      O2L     -0.780000       15.9994           0
     10334 MEMB     78       POPS     O12      OSLP    -0.570000       15.9994           0
     10335 MEMB     78       POPS     O11      OSLP    -0.570000       15.9994           0
     10336 MEMB     78       POPS     C1       CTL2    -0.800000E-01   12.0110           0
     10337 MEMB     78       POPS     HA       HAL2     0.900000E-01   1.00800           0
     10338 MEMB     78       POPS     HB       HAL2     0.900000E-01   1.00800           0
     10339 MEMB     78       POPS     C2       CTL1     0.170000       12.0110           0
     10340 MEMB     78       POPS     HS       HAL1     0.900000E-01   1.00800           0
     10341 MEMB     78       POPS     O21      OSL     -0.490000       15.9994           0
     10342 MEMB     78       POPS     C21      CL       0.900000       12.0110           0
     10343 MEMB     78       POPS     O22      OBL     -0.630000       15.9994           0
     10344 MEMB     78       POPS     C22      CTL2    -0.220000       12.0110           0
     10345 MEMB     78       POPS     H2R      HAL2     0.900000E-01   1.00800           0
     10346 MEMB     78       POPS     H2S      HAL2     0.900000E-01   1.00800           0
     10347 MEMB     78       POPS     C3       CTL2     0.800000E-01   12.0110           0
     10348 MEMB     78       POPS     HX       HAL2     0.900000E-01   1.00800           0
     10349 MEMB     78       POPS     HY       HAL2     0.900000E-01   1.00800           0
     10350 MEMB     78       POPS     O31      OSL     -0.490000       15.9994           0
     10351 MEMB     78       POPS     C31      CL       0.900000       12.0110           0
     10352 MEMB     78       POPS     O32      OBL     -0.630000       15.9994           0
     10353 MEMB     78       POPS     C32      CTL2    -0.220000       12.0110           0
     10354 MEMB     78       POPS     H2X      HAL2     0.900000E-01   1.00800           0
     10355 MEMB     78       POPS     H2Y      HAL2     0.900000E-01   1.00800           0
     10356 MEMB     78       POPS     C23      CTL2    -0.180000       12.0110           0
     10357 MEMB     78       POPS     H3R      HAL2     0.900000E-01   1.00800           0
     10358 MEMB     78       POPS     H3S      HAL2     0.900000E-01   1.00800           0
     10359 MEMB     78       POPS     C24      CTL2    -0.180000       12.0110           0
     10360 MEMB     78       POPS     H4R      HAL2     0.900000E-01   1.00800           0
     10361 MEMB     78       POPS     H4S      HAL2     0.900000E-01   1.00800           0
     10362 MEMB     78       POPS     C25      CTL2    -0.180000       12.0110           0
     10363 MEMB     78       POPS     H5R      HAL2     0.900000E-01   1.00800           0
     10364 MEMB     78       POPS     H5S      HAL2     0.900000E-01   1.00800           0
     10365 MEMB     78       POPS     C26      CTL2    -0.180000       12.0110           0
     10366 MEMB     78       POPS     H6R      HAL2     0.900000E-01   1.00800           0
     10367 MEMB     78       POPS     H6S      HAL2     0.900000E-01   1.00800           0
     10368 MEMB     78       POPS     C27      CTL2    -0.180000       12.0110           0
     10369 MEMB     78       POPS     H7R      HAL2     0.900000E-01   1.00800           0
     10370 MEMB     78       POPS     H7S      HAL2     0.900000E-01   1.00800           0
     10371 MEMB     78       POPS     C28      CTL2    -0.180000       12.0110           0
     10372 MEMB     78       POPS     H8R      HAL2     0.900000E-01   1.00800           0
     10373 MEMB     78       POPS     H8S      HAL2     0.900000E-01   1.00800           0
     10374 MEMB     78       POPS     C29      CEL1    -0.150000       12.0110           0
     10375 MEMB     78       POPS     H91      HEL1     0.150000       1.00800           0
     10376 MEMB     78       POPS     C210     CEL1    -0.150000       12.0110           0
     10377 MEMB     78       POPS     H101     HEL1     0.150000       1.00800           0
     10378 MEMB     78       POPS     C211     CTL2    -0.180000       12.0110           0
     10379 MEMB     78       POPS     H11R     HAL2     0.900000E-01   1.00800           0
     10380 MEMB     78       POPS     H11S     HAL2     0.900000E-01   1.00800           0
     10381 MEMB     78       POPS     C212     CTL2    -0.180000       12.0110           0
     10382 MEMB     78       POPS     H12R     HAL2     0.900000E-01   1.00800           0
     10383 MEMB     78       POPS     H12S     HAL2     0.900000E-01   1.00800           0
     10384 MEMB     78       POPS     C213     CTL2    -0.180000       12.0110           0
     10385 MEMB     78       POPS     H13R     HAL2     0.900000E-01   1.00800           0
     10386 MEMB     78       POPS     H13S     HAL2     0.900000E-01   1.00800           0
     10387 MEMB     78       POPS     C214     CTL2    -0.180000       12.0110           0
     10388 MEMB     78       POPS     H14R     HAL2     0.900000E-01   1.00800           0
     10389 MEMB     78       POPS     H14S     HAL2     0.900000E-01   1.00800           0
     10390 MEMB     78       POPS     C215     CTL2    -0.180000       12.0110           0
     10391 MEMB     78       POPS     H15R     HAL2     0.900000E-01   1.00800           0
     10392 MEMB     78       POPS     H15S     HAL2     0.900000E-01   1.00800           0
     10393 MEMB     78       POPS     C216     CTL2    -0.180000       12.0110           0
     10394 MEMB     78       POPS     H16R     HAL2     0.900000E-01   1.00800           0
     10395 MEMB     78       POPS     H16S     HAL2     0.900000E-01   1.00800           0
     10396 MEMB     78       POPS     C217     CTL2    -0.180000       12.0110           0
     10397 MEMB     78       POPS     H17R     HAL2     0.900000E-01   1.00800           0
     10398 MEMB     78       POPS     H17S     HAL2     0.900000E-01   1.00800           0
     10399 MEMB     78       POPS     C218     CTL3    -0.270000       12.0110           0
     10400 MEMB     78       POPS     H18R     HAL3     0.900000E-01   1.00800           0
     10401 MEMB     78       POPS     H18S     HAL3     0.900000E-01   1.00800           0
     10402 MEMB     78       POPS     H18T     HAL3     0.900000E-01   1.00800           0
     10403 MEMB     78       POPS     C33      CTL2    -0.180000       12.0110           0
     10404 MEMB     78       POPS     H3X      HAL2     0.900000E-01   1.00800           0
     10405 MEMB     78       POPS     H3Y      HAL2     0.900000E-01   1.00800           0
     10406 MEMB     78       POPS     C34      CTL2    -0.180000       12.0110           0
     10407 MEMB     78       POPS     H4X      HAL2     0.900000E-01   1.00800           0
     10408 MEMB     78       POPS     H4Y      HAL2     0.900000E-01   1.00800           0
     10409 MEMB     78       POPS     C35      CTL2    -0.180000       12.0110           0
     10410 MEMB     78       POPS     H5X      HAL2     0.900000E-01   1.00800           0
     10411 MEMB     78       POPS     H5Y      HAL2     0.900000E-01   1.00800           0
     10412 MEMB     78       POPS     C36      CTL2    -0.180000       12.0110           0
     10413 MEMB     78       POPS     H6X      HAL2     0.900000E-01   1.00800           0
     10414 MEMB     78       POPS     H6Y      HAL2     0.900000E-01   1.00800           0
     10415 MEMB     78       POPS     C37      CTL2    -0.180000       12.0110           0
     10416 MEMB     78       POPS     H7X      HAL2     0.900000E-01   1.00800           0
     10417 MEMB     78       POPS     H7Y      HAL2     0.900000E-01   1.00800           0
     10418 MEMB     78       POPS     C38      CTL2    -0.180000       12.0110           0
     10419 MEMB     78       POPS     H8X      HAL2     0.900000E-01   1.00800           0
     10420 MEMB     78       POPS     H8Y      HAL2     0.900000E-01   1.00800           0
     10421 MEMB     78       POPS     C39      CTL2    -0.180000       12.0110           0
     10422 MEMB     78       POPS     H9X      HAL2     0.900000E-01   1.00800           0
     10423 MEMB     78       POPS     H9Y      HAL2     0.900000E-01   1.00800           0
     10424 MEMB     78       POPS     C310     CTL2    -0.180000       12.0110           0
     10425 MEMB     78       POPS     H10X     HAL2     0.900000E-01   1.00800           0
     10426 MEMB     78       POPS     H10Y     HAL2     0.900000E-01   1.00800           0
     10427 MEMB     78       POPS     C311     CTL2    -0.180000       12.0110           0
     10428 MEMB     78       POPS     H11X     HAL2     0.900000E-01   1.00800           0
     10429 MEMB     78       POPS     H11Y     HAL2     0.900000E-01   1.00800           0
     10430 MEMB     78       POPS     C312     CTL2    -0.180000       12.0110           0
     10431 MEMB     78       POPS     H12X     HAL2     0.900000E-01   1.00800           0
     10432 MEMB     78       POPS     H12Y     HAL2     0.900000E-01   1.00800           0
     10433 MEMB     78       POPS     C313     CTL2    -0.180000       12.0110           0
     10434 MEMB     78       POPS     H13X     HAL2     0.900000E-01   1.00800           0
     10435 MEMB     78       POPS     H13Y     HAL2     0.900000E-01   1.00800           0
     10436 MEMB     78       POPS     C314     CTL2    -0.180000       12.0110           0
     10437 MEMB     78       POPS     H14X     HAL2     0.900000E-01   1.00800           0
     10438 MEMB     78       POPS     H14Y     HAL2     0.900000E-01   1.00800           0
     10439 MEMB     78       POPS     C315     CTL2    -0.180000       12.0110           0
     10440 MEMB     78       POPS     H15X     HAL2     0.900000E-01   1.00800           0
     10441 MEMB     78       POPS     H15Y     HAL2     0.900000E-01   1.00800           0
     10442 MEMB     78       POPS     C316     CTL3    -0.270000       12.0110           0
     10443 MEMB     78       POPS     H16X     HAL3     0.900000E-01   1.00800           0
     10444 MEMB     78       POPS     H16Y     HAL3     0.900000E-01   1.00800           0
     10445 MEMB     78       POPS     H16Z     HAL3     0.900000E-01   1.00800           0
     10446 MEMB     79       POPS     N        NH3L    -0.300000       14.0070           0
     10447 MEMB     79       POPS     HN1      HCL      0.330000       1.00800           0
     10448 MEMB     79       POPS     HN2      HCL      0.330000       1.00800           0
     10449 MEMB     79       POPS     HN3      HCL      0.330000       1.00800           0
     10450 MEMB     79       POPS     C12      CTL1     0.210000       12.0110           0
     10451 MEMB     79       POPS     H12A     HBL      0.100000       1.00800           0
     10452 MEMB     79       POPS     C13      CCL      0.340000       12.0110           0
     10453 MEMB     79       POPS     O13A     OCL     -0.670000       15.9994           0
     10454 MEMB     79       POPS     O13B     OCL     -0.670000       15.9994           0
     10455 MEMB     79       POPS     C11      CTL2    -0.800000E-01   12.0110           0
     10456 MEMB     79       POPS     H11A     HAL2     0.900000E-01   1.00800           0
     10457 MEMB     79       POPS     H11B     HAL2     0.900000E-01   1.00800           0
     10458 MEMB     79       POPS     P        PL       1.500000       30.9740           0
     10459 MEMB     79       POPS     O13      O2L     -0.780000       15.9994           0
     10460 MEMB     79       POPS     O14      O2L     -0.780000       15.9994           0
     10461 MEMB     79       POPS     O12      OSLP    -0.570000       15.9994           0
     10462 MEMB     79       POPS     O11      OSLP    -0.570000       15.9994           0
     10463 MEMB     79       POPS     C1       CTL2    -0.800000E-01   12.0110           0
     10464 MEMB     79       POPS     HA       HAL2     0.900000E-01   1.00800           0
     10465 MEMB     79       POPS     HB       HAL2     0.900000E-01   1.00800           0
     10466 MEMB     79       POPS     C2       CTL1     0.170000       12.0110           0
     10467 MEMB     79       POPS     HS       HAL1     0.900000E-01   1.00800           0
     10468 MEMB     79       POPS     O21      OSL     -0.490000       15.9994           0
     10469 MEMB     79       POPS     C21      CL       0.900000       12.0110           0
     10470 MEMB     79       POPS     O22      OBL     -0.630000       15.9994           0
     10471 MEMB     79       POPS     C22      CTL2    -0.220000       12.0110           0
     10472 MEMB     79       POPS     H2R      HAL2     0.900000E-01   1.00800           0
     10473 MEMB     79       POPS     H2S      HAL2     0.900000E-01   1.00800           0
     10474 MEMB     79       POPS     C3       CTL2     0.800000E-01   12.0110           0
     10475 MEMB     79       POPS     HX       HAL2     0.900000E-01   1.00800           0
     10476 MEMB     79       POPS     HY       HAL2     0.900000E-01   1.00800           0
     10477 MEMB     79       POPS     O31      OSL     -0.490000       15.9994           0
     10478 MEMB     79       POPS     C31      CL       0.900000       12.0110           0
     10479 MEMB     79       POPS     O32      OBL     -0.630000       15.9994           0
     10480 MEMB     79       POPS     C32      CTL2    -0.220000       12.0110           0
     10481 MEMB     79       POPS     H2X      HAL2     0.900000E-01   1.00800           0
     10482 MEMB     79       POPS     H2Y      HAL2     0.900000E-01   1.00800           0
     10483 MEMB     79       POPS     C23      CTL2    -0.180000       12.0110           0
     10484 MEMB     79       POPS     H3R      HAL2     0.900000E-01   1.00800           0
     10485 MEMB     79       POPS     H3S      HAL2     0.900000E-01   1.00800           0
     10486 MEMB     79       POPS     C24      CTL2    -0.180000       12.0110           0
     10487 MEMB     79       POPS     H4R      HAL2     0.900000E-01   1.00800           0
     10488 MEMB     79       POPS     H4S      HAL2     0.900000E-01   1.00800           0
     10489 MEMB     79       POPS     C25      CTL2    -0.180000       12.0110           0
     10490 MEMB     79       POPS     H5R      HAL2     0.900000E-01   1.00800           0
     10491 MEMB     79       POPS     H5S      HAL2     0.900000E-01   1.00800           0
     10492 MEMB     79       POPS     C26      CTL2    -0.180000       12.0110           0
     10493 MEMB     79       POPS     H6R      HAL2     0.900000E-01   1.00800           0
     10494 MEMB     79       POPS     H6S      HAL2     0.900000E-01   1.00800           0
     10495 MEMB     79       POPS     C27      CTL2    -0.180000       12.0110           0
     10496 MEMB     79       POPS     H7R      HAL2     0.900000E-01   1.00800           0
     10497 MEMB     79       POPS     H7S      HAL2     0.900000E-01   1.00800           0
     10498 MEMB     79       POPS     C28      CTL2    -0.180000       12.0110           0
     10499 MEMB     79       POPS     H8R      HAL2     0.900000E-01   1.00800           0
     10500 MEMB     79       POPS     H8S      HAL2     0.900000E-01   1.00800           0
     10501 MEMB     79       POPS     C29      CEL1    -0.150000       12.0110           0
     10502 MEMB     79       POPS     H91      HEL1     0.150000       1.00800           0
     10503 MEMB     79       POPS     C210     CEL1    -0.150000       12.0110           0
     10504 MEMB     79       POPS     H101     HEL1     0.150000       1.00800           0
     10505 MEMB     79       POPS     C211     CTL2    -0.180000       12.0110           0
     10506 MEMB     79       POPS     H11R     HAL2     0.900000E-01   1.00800           0
     10507 MEMB     79       POPS     H11S     HAL2     0.900000E-01   1.00800           0
     10508 MEMB     79       POPS     C212     CTL2    -0.180000       12.0110           0
     10509 MEMB     79       POPS     H12R     HAL2     0.900000E-01   1.00800           0
     10510 MEMB     79       POPS     H12S     HAL2     0.900000E-01   1.00800           0
     10511 MEMB     79       POPS     C213     CTL2    -0.180000       12.0110           0
     10512 MEMB     79       POPS     H13R     HAL2     0.900000E-01   1.00800           0
     10513 MEMB     79       POPS     H13S     HAL2     0.900000E-01   1.00800           0
     10514 MEMB     79       POPS     C214     CTL2    -0.180000       12.0110           0
     10515 MEMB     79       POPS     H14R     HAL2     0.900000E-01   1.00800           0
     10516 MEMB     79       POPS     H14S     HAL2     0.900000E-01   1.00800           0
     10517 MEMB     79       POPS     C215     CTL2    -0.180000       12.0110           0
     10518 MEMB     79       POPS     H15R     HAL2     0.900000E-01   1.00800           0
     10519 MEMB     79       POPS     H15S     HAL2     0.900000E-01   1.00800           0
     10520 MEMB     79       POPS     C216     CTL2    -0.180000       12.0110           0
     10521 MEMB     79       POPS     H16R     HAL2     0.900000E-01   1.00800           0
     10522 MEMB     79       POPS     H16S     HAL2     0.900000E-01   1.00800           0
     10523 MEMB     79       POPS     C217     CTL2    -0.180000       12.0110           0
     10524 MEMB     79       POPS     H17R     HAL2     0.900000E-01   1.00800           0
     10525 MEMB     79       POPS     H17S     HAL2     0.900000E-01   1.00800           0
     10526 MEMB     79       POPS     C218     CTL3    -0.270000       12.0110           0
     10527 MEMB     79       POPS     H18R     HAL3     0.900000E-01   1.00800           0
     10528 MEMB     79       POPS     H18S     HAL3     0.900000E-01   1.00800           0
     10529 MEMB     79       POPS     H18T     HAL3     0.900000E-01   1.00800           0
     10530 MEMB     79       POPS     C33      CTL2    -0.180000       12.0110           0
     10531 MEMB     79       POPS     H3X      HAL2     0.900000E-01   1.00800           0
     10532 MEMB     79       POPS     H3Y      HAL2     0.900000E-01   1.00800           0
     10533 MEMB     79       POPS     C34      CTL2    -0.180000       12.0110           0
     10534 MEMB     79       POPS     H4X      HAL2     0.900000E-01   1.00800           0
     10535 MEMB     79       POPS     H4Y      HAL2     0.900000E-01   1.00800           0
     10536 MEMB     79       POPS     C35      CTL2    -0.180000       12.0110           0
     10537 MEMB     79       POPS     H5X      HAL2     0.900000E-01   1.00800           0
     10538 MEMB     79       POPS     H5Y      HAL2     0.900000E-01   1.00800           0
     10539 MEMB     79       POPS     C36      CTL2    -0.180000       12.0110           0
     10540 MEMB     79       POPS     H6X      HAL2     0.900000E-01   1.00800           0
     10541 MEMB     79       POPS     H6Y      HAL2     0.900000E-01   1.00800           0
     10542 MEMB     79       POPS     C37      CTL2    -0.180000       12.0110           0
     10543 MEMB     79       POPS     H7X      HAL2     0.900000E-01   1.00800           0
     10544 MEMB     79       POPS     H7Y      HAL2     0.900000E-01   1.00800           0
     10545 MEMB     79       POPS     C38      CTL2    -0.180000       12.0110           0
     10546 MEMB     79       POPS     H8X      HAL2     0.900000E-01   1.00800           0
     10547 MEMB     79       POPS     H8Y      HAL2     0.900000E-01   1.00800           0
     10548 MEMB     79       POPS     C39      CTL2    -0.180000       12.0110           0
     10549 MEMB     79       POPS     H9X      HAL2     0.900000E-01   1.00800           0
     10550 MEMB     79       POPS     H9Y      HAL2     0.900000E-01   1.00800           0
     10551 MEMB     79       POPS     C310     CTL2    -0.180000       12.0110           0
     10552 MEMB     79       POPS     H10X     HAL2     0.900000E-01   1.00800           0
     10553 MEMB     79       POPS     H10Y     HAL2     0.900000E-01   1.00800           0
     10554 MEMB     79       POPS     C311     CTL2    -0.180000       12.0110           0
     10555 MEMB     79       POPS     H11X     HAL2     0.900000E-01   1.00800           0
     10556 MEMB     79       POPS     H11Y     HAL2     0.900000E-01   1.00800           0
     10557 MEMB     79       POPS     C312     CTL2    -0.180000       12.0110           0
     10558 MEMB     79       POPS     H12X     HAL2     0.900000E-01   1.00800           0
     10559 MEMB     79       POPS     H12Y     HAL2     0.900000E-01   1.00800           0
     10560 MEMB     79       POPS     C313     CTL2    -0.180000       12.0110           0
     10561 MEMB     79       POPS     H13X     HAL2     0.900000E-01   1.00800           0
     10562 MEMB     79       POPS     H13Y     HAL2     0.900000E-01   1.00800           0
     10563 MEMB     79       POPS     C314     CTL2    -0.180000       12.0110           0
     10564 MEMB     79       POPS     H14X     HAL2     0.900000E-01   1.00800           0
     10565 MEMB     79       POPS     H14Y     HAL2     0.900000E-01   1.00800           0
     10566 MEMB     79       POPS     C315     CTL2    -0.180000       12.0110           0
     10567 MEMB     79       POPS     H15X     HAL2     0.900000E-01   1.00800           0
     10568 MEMB     79       POPS     H15Y     HAL2     0.900000E-01   1.00800           0
     10569 MEMB     79       POPS     C316     CTL3    -0.270000       12.0110           0
     10570 MEMB     79       POPS     H16X     HAL3     0.900000E-01   1.00800           0
     10571 MEMB     79       POPS     H16Y     HAL3     0.900000E-01   1.00800           0
     10572 MEMB     79       POPS     H16Z     HAL3     0.900000E-01   1.00800           0
     10573 MEMB     80       POPC     N        NTL     -0.600000       14.0070           0
     10574 MEMB     80       POPC     C12      CTL2    -0.100000       12.0110           0
     10575 MEMB     80       POPC     H12A     HL       0.250000       1.00800           0
     10576 MEMB     80       POPC     H12B     HL       0.250000       1.00800           0
     10577 MEMB     80       POPC     C13      CTL5    -0.350000       12.0110           0
     10578 MEMB     80       POPC     H13A     HL       0.250000       1.00800           0
     10579 MEMB     80       POPC     H13B     HL       0.250000       1.00800           0
     10580 MEMB     80       POPC     H13C     HL       0.250000       1.00800           0
     10581 MEMB     80       POPC     C14      CTL5    -0.350000       12.0110           0
     10582 MEMB     80       POPC     H14A     HL       0.250000       1.00800           0
     10583 MEMB     80       POPC     H14B     HL       0.250000       1.00800           0
     10584 MEMB     80       POPC     H14C     HL       0.250000       1.00800           0
     10585 MEMB     80       POPC     C15      CTL5    -0.350000       12.0110           0
     10586 MEMB     80       POPC     H15A     HL       0.250000       1.00800           0
     10587 MEMB     80       POPC     H15B     HL       0.250000       1.00800           0
     10588 MEMB     80       POPC     H15C     HL       0.250000       1.00800           0
     10589 MEMB     80       POPC     C11      CTL2    -0.800000E-01   12.0110           0
     10590 MEMB     80       POPC     H11A     HAL2     0.900000E-01   1.00800           0
     10591 MEMB     80       POPC     H11B     HAL2     0.900000E-01   1.00800           0
     10592 MEMB     80       POPC     P        PL       1.500000       30.9740           0
     10593 MEMB     80       POPC     O13      O2L     -0.780000       15.9994           0
     10594 MEMB     80       POPC     O14      O2L     -0.780000       15.9994           0
     10595 MEMB     80       POPC     O12      OSLP    -0.570000       15.9994           0
     10596 MEMB     80       POPC     O11      OSLP    -0.570000       15.9994           0
     10597 MEMB     80       POPC     C1       CTL2    -0.800000E-01   12.0110           0
     10598 MEMB     80       POPC     HA       HAL2     0.900000E-01   1.00800           0
     10599 MEMB     80       POPC     HB       HAL2     0.900000E-01   1.00800           0
     10600 MEMB     80       POPC     C2       CTL1     0.170000       12.0110           0
     10601 MEMB     80       POPC     HS       HAL1     0.900000E-01   1.00800           0
     10602 MEMB     80       POPC     O21      OSL     -0.490000       15.9994           0
     10603 MEMB     80       POPC     C21      CL       0.900000       12.0110           0
     10604 MEMB     80       POPC     O22      OBL     -0.630000       15.9994           0
     10605 MEMB     80       POPC     C22      CTL2    -0.220000       12.0110           0
     10606 MEMB     80       POPC     H2R      HAL2     0.900000E-01   1.00800           0
     10607 MEMB     80       POPC     H2S      HAL2     0.900000E-01   1.00800           0
     10608 MEMB     80       POPC     C3       CTL2     0.800000E-01   12.0110           0
     10609 MEMB     80       POPC     HX       HAL2     0.900000E-01   1.00800           0
     10610 MEMB     80       POPC     HY       HAL2     0.900000E-01   1.00800           0
     10611 MEMB     80       POPC     O31      OSL     -0.490000       15.9994           0
     10612 MEMB     80       POPC     C31      CL       0.900000       12.0110           0
     10613 MEMB     80       POPC     O32      OBL     -0.630000       15.9994           0
     10614 MEMB     80       POPC     C32      CTL2    -0.220000       12.0110           0
     10615 MEMB     80       POPC     H2X      HAL2     0.900000E-01   1.00800           0
     10616 MEMB     80       POPC     H2Y      HAL2     0.900000E-01   1.00800           0
     10617 MEMB     80       POPC     C23      CTL2    -0.180000       12.0110           0
     10618 MEMB     80       POPC     H3R      HAL2     0.900000E-01   1.00800           0
     10619 MEMB     80       POPC     H3S      HAL2     0.900000E-01   1.00800           0
     10620 MEMB     80       POPC     C24      CTL2    -0.180000       12.0110           0
     10621 MEMB     80       POPC     H4R      HAL2     0.900000E-01   1.00800           0
     10622 MEMB     80       POPC     H4S      HAL2     0.900000E-01   1.00800           0
     10623 MEMB     80       POPC     C25      CTL2    -0.180000       12.0110           0
     10624 MEMB     80       POPC     H5R      HAL2     0.900000E-01   1.00800           0
     10625 MEMB     80       POPC     H5S      HAL2     0.900000E-01   1.00800           0
     10626 MEMB     80       POPC     C26      CTL2    -0.180000       12.0110           0
     10627 MEMB     80       POPC     H6R      HAL2     0.900000E-01   1.00800           0
     10628 MEMB     80       POPC     H6S      HAL2     0.900000E-01   1.00800           0
     10629 MEMB     80       POPC     C27      CTL2    -0.180000       12.0110           0
     10630 MEMB     80       POPC     H7R      HAL2     0.900000E-01   1.00800           0
     10631 MEMB     80       POPC     H7S      HAL2     0.900000E-01   1.00800           0
     10632 MEMB     80       POPC     C28      CTL2    -0.180000       12.0110           0
     10633 MEMB     80       POPC     H8R      HAL2     0.900000E-01   1.00800           0
     10634 MEMB     80       POPC     H8S      HAL2     0.900000E-01   1.00800           0
     10635 MEMB     80       POPC     C29      CEL1    -0.150000       12.0110           0
     10636 MEMB     80       POPC     H91      HEL1     0.150000       1.00800           0
     10637 MEMB     80       POPC     C210     CEL1    -0.150000       12.0110           0
     10638 MEMB     80       POPC     H101     HEL1     0.150000       1.00800           0
     10639 MEMB     80       POPC     C211     CTL2    -0.180000       12.0110           0
     10640 MEMB     80       POPC     H11R     HAL2     0.900000E-01   1.00800           0
     10641 MEMB     80       POPC     H11S     HAL2     0.900000E-01   1.00800           0
     10642 MEMB     80       POPC     C212     CTL2    -0.180000       12.0110           0
     10643 MEMB     80       POPC     H12R     HAL2     0.900000E-01   1.00800           0
     10644 MEMB     80       POPC     H12S     HAL2     0.900000E-01   1.00800           0
     10645 MEMB     80       POPC     C213     CTL2    -0.180000       12.0110           0
     10646 MEMB     80       POPC     H13R     HAL2     0.900000E-01   1.00800           0
     10647 MEMB     80       POPC     H13S     HAL2     0.900000E-01   1.00800           0
     10648 MEMB     80       POPC     C214     CTL2    -0.180000       12.0110           0
     10649 MEMB     80       POPC     H14R     HAL2     0.900000E-01   1.00800           0
     10650 MEMB     80       POPC     H14S     HAL2     0.900000E-01   1.00800           0
     10651 MEMB     80       POPC     C215     CTL2    -0.180000       12.0110           0
     10652 MEMB     80       POPC     H15R     HAL2     0.900000E-01   1.00800           0
     10653 MEMB     80       POPC     H15S     HAL2     0.900000E-01   1.00800           0
     10654 MEMB     80       POPC     C216     CTL2    -0.180000       12.0110           0
     10655 MEMB     80       POPC     H16R     HAL2     0.900000E-01   1.00800           0
     10656 MEMB     80       POPC     H16S     HAL2     0.900000E-01   1.00800           0
     10657 MEMB     80       POPC     C217     CTL2    -0.180000       12.0110           0
     10658 MEMB     80       POPC     H17R     HAL2     0.900000E-01   1.00800           0
     10659 MEMB     80       POPC     H17S     HAL2     0.900000E-01   1.00800           0
     10660 MEMB     80       POPC     C218     CTL3    -0.270000       12.0110           0
     10661 MEMB     80       POPC     H18R     HAL3     0.900000E-01   1.00800           0
     10662 MEMB     80       POPC     H18S     HAL3     0.900000E-01   1.00800           0
     10663 MEMB     80       POPC     H18T     HAL3     0.900000E-01   1.00800           0
     10664 MEMB     80       POPC     C33      CTL2    -0.180000       12.0110           0
     10665 MEMB     80       POPC     H3X      HAL2     0.900000E-01   1.00800           0
     10666 MEMB     80       POPC     H3Y      HAL2     0.900000E-01   1.00800           0
     10667 MEMB     80       POPC     C34      CTL2    -0.180000       12.0110           0
     10668 MEMB     80       POPC     H4X      HAL2     0.900000E-01   1.00800           0
     10669 MEMB     80       POPC     H4Y      HAL2     0.900000E-01   1.00800           0
     10670 MEMB     80       POPC     C35      CTL2    -0.180000       12.0110           0
     10671 MEMB     80       POPC     H5X      HAL2     0.900000E-01   1.00800           0
     10672 MEMB     80       POPC     H5Y      HAL2     0.900000E-01   1.00800           0
     10673 MEMB     80       POPC     C36      CTL2    -0.180000       12.0110           0
     10674 MEMB     80       POPC     H6X      HAL2     0.900000E-01   1.00800           0
     10675 MEMB     80       POPC     H6Y      HAL2     0.900000E-01   1.00800           0
     10676 MEMB     80       POPC     C37      CTL2    -0.180000       12.0110           0
     10677 MEMB     80       POPC     H7X      HAL2     0.900000E-01   1.00800           0
     10678 MEMB     80       POPC     H7Y      HAL2     0.900000E-01   1.00800           0
     10679 MEMB     80       POPC     C38      CTL2    -0.180000       12.0110           0
     10680 MEMB     80       POPC     H8X      HAL2     0.900000E-01   1.00800           0
     10681 MEMB     80       POPC     H8Y      HAL2     0.900000E-01   1.00800           0
     10682 MEMB     80       POPC     C39      CTL2    -0.180000       12.0110           0
     10683 MEMB     80       POPC     H9X      HAL2     0.900000E-01   1.00800           0
     10684 MEMB     80       POPC     H9Y      HAL2     0.900000E-01   1.00800           0
     10685 MEMB     80       POPC     C310     CTL2    -0.180000       12.0110           0
     10686 MEMB     80       POPC     H10X     HAL2     0.900000E-01   1.00800           0
     10687 MEMB     80       POPC     H10Y     HAL2     0.900000E-01   1.00800           0
     10688 MEMB     80       POPC     C311     CTL2    -0.180000       12.0110           0
     10689 MEMB     80       POPC     H11X     HAL2     0.900000E-01   1.00800           0
     10690 MEMB     80       POPC     H11Y     HAL2     0.900000E-01   1.00800           0
     10691 MEMB     80       POPC     C312     CTL2    -0.180000       12.0110           0
     10692 MEMB     80       POPC     H12X     HAL2     0.900000E-01   1.00800           0
     10693 MEMB     80       POPC     H12Y     HAL2     0.900000E-01   1.00800           0
     10694 MEMB     80       POPC     C313     CTL2    -0.180000       12.0110           0
     10695 MEMB     80       POPC     H13X     HAL2     0.900000E-01   1.00800           0
     10696 MEMB     80       POPC     H13Y     HAL2     0.900000E-01   1.00800           0
     10697 MEMB     80       POPC     C314     CTL2    -0.180000       12.0110           0
     10698 MEMB     80       POPC     H14X     HAL2     0.900000E-01   1.00800           0
     10699 MEMB     80       POPC     H14Y     HAL2     0.900000E-01   1.00800           0
     10700 MEMB     80       POPC     C315     CTL2    -0.180000       12.0110           0
     10701 MEMB     80       POPC     H15X     HAL2     0.900000E-01   1.00800           0
     10702 MEMB     80       POPC     H15Y     HAL2     0.900000E-01   1.00800           0
     10703 MEMB     80       POPC     C316     CTL3    -0.270000       12.0110           0
     10704 MEMB     80       POPC     H16X     HAL3     0.900000E-01   1.00800           0
     10705 MEMB     80       POPC     H16Y     HAL3     0.900000E-01   1.00800           0
     10706 MEMB     80       POPC     H16Z     HAL3     0.900000E-01   1.00800           0
     10707 MEMB     81       POPC     N        NTL     -0.600000       14.0070           0
     10708 MEMB     81       POPC     C12      CTL2    -0.100000       12.0110           0
     10709 MEMB     81       POPC     H12A     HL       0.250000       1.00800           0
     10710 MEMB     81       POPC     H12B     HL       0.250000       1.00800           0
     10711 MEMB     81       POPC     C13      CTL5    -0.350000       12.0110           0
     10712 MEMB     81       POPC     H13A     HL       0.250000       1.00800           0
     10713 MEMB     81       POPC     H13B     HL       0.250000       1.00800           0
     10714 MEMB     81       POPC     H13C     HL       0.250000       1.00800           0
     10715 MEMB     81       POPC     C14      CTL5    -0.350000       12.0110           0
     10716 MEMB     81       POPC     H14A     HL       0.250000       1.00800           0
     10717 MEMB     81       POPC     H14B     HL       0.250000       1.00800           0
     10718 MEMB     81       POPC     H14C     HL       0.250000       1.00800           0
     10719 MEMB     81       POPC     C15      CTL5    -0.350000       12.0110           0
     10720 MEMB     81       POPC     H15A     HL       0.250000       1.00800           0
     10721 MEMB     81       POPC     H15B     HL       0.250000       1.00800           0
     10722 MEMB     81       POPC     H15C     HL       0.250000       1.00800           0
     10723 MEMB     81       POPC     C11      CTL2    -0.800000E-01   12.0110           0
     10724 MEMB     81       POPC     H11A     HAL2     0.900000E-01   1.00800           0
     10725 MEMB     81       POPC     H11B     HAL2     0.900000E-01   1.00800           0
     10726 MEMB     81       POPC     P        PL       1.500000       30.9740           0
     10727 MEMB     81       POPC     O13      O2L     -0.780000       15.9994           0
     10728 MEMB     81       POPC     O14      O2L     -0.780000       15.9994           0
     10729 MEMB     81       POPC     O12      OSLP    -0.570000       15.9994           0
     10730 MEMB     81       POPC     O11      OSLP    -0.570000       15.9994           0
     10731 MEMB     81       POPC     C1       CTL2    -0.800000E-01   12.0110           0
     10732 MEMB     81       POPC     HA       HAL2     0.900000E-01   1.00800           0
     10733 MEMB     81       POPC     HB       HAL2     0.900000E-01   1.00800           0
     10734 MEMB     81       POPC     C2       CTL1     0.170000       12.0110           0
     10735 MEMB     81       POPC     HS       HAL1     0.900000E-01   1.00800           0
     10736 MEMB     81       POPC     O21      OSL     -0.490000       15.9994           0
     10737 MEMB     81       POPC     C21      CL       0.900000       12.0110           0
     10738 MEMB     81       POPC     O22      OBL     -0.630000       15.9994           0
     10739 MEMB     81       POPC     C22      CTL2    -0.220000       12.0110           0
     10740 MEMB     81       POPC     H2R      HAL2     0.900000E-01   1.00800           0
     10741 MEMB     81       POPC     H2S      HAL2     0.900000E-01   1.00800           0
     10742 MEMB     81       POPC     C3       CTL2     0.800000E-01   12.0110           0
     10743 MEMB     81       POPC     HX       HAL2     0.900000E-01   1.00800           0
     10744 MEMB     81       POPC     HY       HAL2     0.900000E-01   1.00800           0
     10745 MEMB     81       POPC     O31      OSL     -0.490000       15.9994           0
     10746 MEMB     81       POPC     C31      CL       0.900000       12.0110           0
     10747 MEMB     81       POPC     O32      OBL     -0.630000       15.9994           0
     10748 MEMB     81       POPC     C32      CTL2    -0.220000       12.0110           0
     10749 MEMB     81       POPC     H2X      HAL2     0.900000E-01   1.00800           0
     10750 MEMB     81       POPC     H2Y      HAL2     0.900000E-01   1.00800           0
     10751 MEMB     81       POPC     C23      CTL2    -0.180000       12.0110           0
     10752 MEMB     81       POPC     H3R      HAL2     0.900000E-01   1.00800           0
     10753 MEMB     81       POPC     H3S      HAL2     0.900000E-01   1.00800           0
     10754 MEMB     81       POPC     C24      CTL2    -0.180000       12.0110           0
     10755 MEMB     81       POPC     H4R      HAL2     0.900000E-01   1.00800           0
     10756 MEMB     81       POPC     H4S      HAL2     0.900000E-01   1.00800           0
     10757 MEMB     81       POPC     C25      CTL2    -0.180000       12.0110           0
     10758 MEMB     81       POPC     H5R      HAL2     0.900000E-01   1.00800           0
     10759 MEMB     81       POPC     H5S      HAL2     0.900000E-01   1.00800           0
     10760 MEMB     81       POPC     C26      CTL2    -0.180000       12.0110           0
     10761 MEMB     81       POPC     H6R      HAL2     0.900000E-01   1.00800           0
     10762 MEMB     81       POPC     H6S      HAL2     0.900000E-01   1.00800           0
     10763 MEMB     81       POPC     C27      CTL2    -0.180000       12.0110           0
     10764 MEMB     81       POPC     H7R      HAL2     0.900000E-01   1.00800           0
     10765 MEMB     81       POPC     H7S      HAL2     0.900000E-01   1.00800           0
     10766 MEMB     81       POPC     C28      CTL2    -0.180000       12.0110           0
     10767 MEMB     81       POPC     H8R      HAL2     0.900000E-01   1.00800           0
     10768 MEMB     81       POPC     H8S      HAL2     0.900000E-01   1.00800           0
     10769 MEMB     81       POPC     C29      CEL1    -0.150000       12.0110           0
     10770 MEMB     81       POPC     H91      HEL1     0.150000       1.00800           0
     10771 MEMB     81       POPC     C210     CEL1    -0.150000       12.0110           0
     10772 MEMB     81       POPC     H101     HEL1     0.150000       1.00800           0
     10773 MEMB     81       POPC     C211     CTL2    -0.180000       12.0110           0
     10774 MEMB     81       POPC     H11R     HAL2     0.900000E-01   1.00800           0
     10775 MEMB     81       POPC     H11S     HAL2     0.900000E-01   1.00800           0
     10776 MEMB     81       POPC     C212     CTL2    -0.180000       12.0110           0
     10777 MEMB     81       POPC     H12R     HAL2     0.900000E-01   1.00800           0
     10778 MEMB     81       POPC     H12S     HAL2     0.900000E-01   1.00800           0
     10779 MEMB     81       POPC     C213     CTL2    -0.180000       12.0110           0
     10780 MEMB     81       POPC     H13R     HAL2     0.900000E-01   1.00800           0
     10781 MEMB     81       POPC     H13S     HAL2     0.900000E-01   1.00800           0
     10782 MEMB     81       POPC     C214     CTL2    -0.180000       12.0110           0
     10783 MEMB     81       POPC     H14R     HAL2     0.900000E-01   1.00800           0
     10784 MEMB     81       POPC     H14S     HAL2     0.900000E-01   1.00800           0
     10785 MEMB     81       POPC     C215     CTL2    -0.180000       12.0110           0
     10786 MEMB     81       POPC     H15R     HAL2     0.900000E-01   1.00800           0
     10787 MEMB     81       POPC     H15S     HAL2     0.900000E-01   1.00800           0
     10788 MEMB     81       POPC     C216     CTL2    -0.180000       12.0110           0
     10789 MEMB     81       POPC     H16R     HAL2     0.900000E-01   1.00800           0
     10790 MEMB     81       POPC     H16S     HAL2     0.900000E-01   1.00800           0
     10791 MEMB     81       POPC     C217     CTL2    -0.180000       12.0110           0
     10792 MEMB     81       POPC     H17R     HAL2     0.900000E-01   1.00800           0
     10793 MEMB     81       POPC     H17S     HAL2     0.900000E-01   1.00800           0
     10794 MEMB     81       POPC     C218     CTL3    -0.270000       12.0110           0
     10795 MEMB     81       POPC     H18R     HAL3     0.900000E-01   1.00800           0
     10796 MEMB     81       POPC     H18S     HAL3     0.900000E-01   1.00800           0
     10797 MEMB     81       POPC     H18T     HAL3     0.900000E-01   1.00800           0
     10798 MEMB     81       POPC     C33      CTL2    -0.180000       12.0110           0
     10799 MEMB     81       POPC     H3X      HAL2     0.900000E-01   1.00800           0
     10800 MEMB     81       POPC     H3Y      HAL2     0.900000E-01   1.00800           0
     10801 MEMB     81       POPC     C34      CTL2    -0.180000       12.0110           0
     10802 MEMB     81       POPC     H4X      HAL2     0.900000E-01   1.00800           0
     10803 MEMB     81       POPC     H4Y      HAL2     0.900000E-01   1.00800           0
     10804 MEMB     81       POPC     C35      CTL2    -0.180000       12.0110           0
     10805 MEMB     81       POPC     H5X      HAL2     0.900000E-01   1.00800           0
     10806 MEMB     81       POPC     H5Y      HAL2     0.900000E-01   1.00800           0
     10807 MEMB     81       POPC     C36      CTL2    -0.180000       12.0110           0
     10808 MEMB     81       POPC     H6X      HAL2     0.900000E-01   1.00800           0
     10809 MEMB     81       POPC     H6Y      HAL2     0.900000E-01   1.00800           0
     10810 MEMB     81       POPC     C37      CTL2    -0.180000       12.0110           0
     10811 MEMB     81       POPC     H7X      HAL2     0.900000E-01   1.00800           0
     10812 MEMB     81       POPC     H7Y      HAL2     0.900000E-01   1.00800           0
     10813 MEMB     81       POPC     C38      CTL2    -0.180000       12.0110           0
     10814 MEMB     81       POPC     H8X      HAL2     0.900000E-01   1.00800           0
     10815 MEMB     81       POPC     H8Y      HAL2     0.900000E-01   1.00800           0
     10816 MEMB     81       POPC     C39      CTL2    -0.180000       12.0110           0
     10817 MEMB     81       POPC     H9X      HAL2     0.900000E-01   1.00800           0
     10818 MEMB     81       POPC     H9Y      HAL2     0.900000E-01   1.00800           0
     10819 MEMB     81       POPC     C310     CTL2    -0.180000       12.0110           0
     10820 MEMB     81       POPC     H10X     HAL2     0.900000E-01   1.00800           0
     10821 MEMB     81       POPC     H10Y     HAL2     0.900000E-01   1.00800           0
     10822 MEMB     81       POPC     C311     CTL2    -0.180000       12.0110           0
     10823 MEMB     81       POPC     H11X     HAL2     0.900000E-01   1.00800           0
     10824 MEMB     81       POPC     H11Y     HAL2     0.900000E-01   1.00800           0
     10825 MEMB     81       POPC     C312     CTL2    -0.180000       12.0110           0
     10826 MEMB     81       POPC     H12X     HAL2     0.900000E-01   1.00800           0
     10827 MEMB     81       POPC     H12Y     HAL2     0.900000E-01   1.00800           0
     10828 MEMB     81       POPC     C313     CTL2    -0.180000       12.0110           0
     10829 MEMB     81       POPC     H13X     HAL2     0.900000E-01   1.00800           0
     10830 MEMB     81       POPC     H13Y     HAL2     0.900000E-01   1.00800           0
     10831 MEMB     81       POPC     C314     CTL2    -0.180000       12.0110           0
     10832 MEMB     81       POPC     H14X     HAL2     0.900000E-01   1.00800           0
     10833 MEMB     81       POPC     H14Y     HAL2     0.900000E-01   1.00800           0
     10834 MEMB     81       POPC     C315     CTL2    -0.180000       12.0110           0
     10835 MEMB     81       POPC     H15X     HAL2     0.900000E-01   1.00800           0
     10836 MEMB     81       POPC     H15Y     HAL2     0.900000E-01   1.00800           0
     10837 MEMB     81       POPC     C316     CTL3    -0.270000       12.0110           0
     10838 MEMB     81       POPC     H16X     HAL3     0.900000E-01   1.00800           0
     10839 MEMB     81       POPC     H16Y     HAL3     0.900000E-01   1.00800           0
     10840 MEMB     81       POPC     H16Z     HAL3     0.900000E-01   1.00800           0
     10841 MEMB     82       POPS     N        NH3L    -0.300000       14.0070           0
     10842 MEMB     82       POPS     HN1      HCL      0.330000       1.00800           0
     10843 MEMB     82       POPS     HN2      HCL      0.330000       1.00800           0
     10844 MEMB     82       POPS     HN3      HCL      0.330000       1.00800           0
     10845 MEMB     82       POPS     C12      CTL1     0.210000       12.0110           0
     10846 MEMB     82       POPS     H12A     HBL      0.100000       1.00800           0
     10847 MEMB     82       POPS     C13      CCL      0.340000       12.0110           0
     10848 MEMB     82       POPS     O13A     OCL     -0.670000       15.9994           0
     10849 MEMB     82       POPS     O13B     OCL     -0.670000       15.9994           0
     10850 MEMB     82       POPS     C11      CTL2    -0.800000E-01   12.0110           0
     10851 MEMB     82       POPS     H11A     HAL2     0.900000E-01   1.00800           0
     10852 MEMB     82       POPS     H11B     HAL2     0.900000E-01   1.00800           0
     10853 MEMB     82       POPS     P        PL       1.500000       30.9740           0
     10854 MEMB     82       POPS     O13      O2L     -0.780000       15.9994           0
     10855 MEMB     82       POPS     O14      O2L     -0.780000       15.9994           0
     10856 MEMB     82       POPS     O12      OSLP    -0.570000       15.9994           0
     10857 MEMB     82       POPS     O11      OSLP    -0.570000       15.9994           0
     10858 MEMB     82       POPS     C1       CTL2    -0.800000E-01   12.0110           0
     10859 MEMB     82       POPS     HA       HAL2     0.900000E-01   1.00800           0
     10860 MEMB     82       POPS     HB       HAL2     0.900000E-01   1.00800           0
     10861 MEMB     82       POPS     C2       CTL1     0.170000       12.0110           0
     10862 MEMB     82       POPS     HS       HAL1     0.900000E-01   1.00800           0
     10863 MEMB     82       POPS     O21      OSL     -0.490000       15.9994           0
     10864 MEMB     82       POPS     C21      CL       0.900000       12.0110           0
     10865 MEMB     82       POPS     O22      OBL     -0.630000       15.9994           0
     10866 MEMB     82       POPS     C22      CTL2    -0.220000       12.0110           0
     10867 MEMB     82       POPS     H2R      HAL2     0.900000E-01   1.00800           0
     10868 MEMB     82       POPS     H2S      HAL2     0.900000E-01   1.00800           0
     10869 MEMB     82       POPS     C3       CTL2     0.800000E-01   12.0110           0
     10870 MEMB     82       POPS     HX       HAL2     0.900000E-01   1.00800           0
     10871 MEMB     82       POPS     HY       HAL2     0.900000E-01   1.00800           0
     10872 MEMB     82       POPS     O31      OSL     -0.490000       15.9994           0
     10873 MEMB     82       POPS     C31      CL       0.900000       12.0110           0
     10874 MEMB     82       POPS     O32      OBL     -0.630000       15.9994           0
     10875 MEMB     82       POPS     C32      CTL2    -0.220000       12.0110           0
     10876 MEMB     82       POPS     H2X      HAL2     0.900000E-01   1.00800           0
     10877 MEMB     82       POPS     H2Y      HAL2     0.900000E-01   1.00800           0
     10878 MEMB     82       POPS     C23      CTL2    -0.180000       12.0110           0
     10879 MEMB     82       POPS     H3R      HAL2     0.900000E-01   1.00800           0
     10880 MEMB     82       POPS     H3S      HAL2     0.900000E-01   1.00800           0
     10881 MEMB     82       POPS     C24      CTL2    -0.180000       12.0110           0
     10882 MEMB     82       POPS     H4R      HAL2     0.900000E-01   1.00800           0
     10883 MEMB     82       POPS     H4S      HAL2     0.900000E-01   1.00800           0
     10884 MEMB     82       POPS     C25      CTL2    -0.180000       12.0110           0
     10885 MEMB     82       POPS     H5R      HAL2     0.900000E-01   1.00800           0
     10886 MEMB     82       POPS     H5S      HAL2     0.900000E-01   1.00800           0
     10887 MEMB     82       POPS     C26      CTL2    -0.180000       12.0110           0
     10888 MEMB     82       POPS     H6R      HAL2     0.900000E-01   1.00800           0
     10889 MEMB     82       POPS     H6S      HAL2     0.900000E-01   1.00800           0
     10890 MEMB     82       POPS     C27      CTL2    -0.180000       12.0110           0
     10891 MEMB     82       POPS     H7R      HAL2     0.900000E-01   1.00800           0
     10892 MEMB     82       POPS     H7S      HAL2     0.900000E-01   1.00800           0
     10893 MEMB     82       POPS     C28      CTL2    -0.180000       12.0110           0
     10894 MEMB     82       POPS     H8R      HAL2     0.900000E-01   1.00800           0
     10895 MEMB     82       POPS     H8S      HAL2     0.900000E-01   1.00800           0
     10896 MEMB     82       POPS     C29      CEL1    -0.150000       12.0110           0
     10897 MEMB     82       POPS     H91      HEL1     0.150000       1.00800           0
     10898 MEMB     82       POPS     C210     CEL1    -0.150000       12.0110           0
     10899 MEMB     82       POPS     H101     HEL1     0.150000       1.00800           0
     10900 MEMB     82       POPS     C211     CTL2    -0.180000       12.0110           0
     10901 MEMB     82       POPS     H11R     HAL2     0.900000E-01   1.00800           0
     10902 MEMB     82       POPS     H11S     HAL2     0.900000E-01   1.00800           0
     10903 MEMB     82       POPS     C212     CTL2    -0.180000       12.0110           0
     10904 MEMB     82       POPS     H12R     HAL2     0.900000E-01   1.00800           0
     10905 MEMB     82       POPS     H12S     HAL2     0.900000E-01   1.00800           0
     10906 MEMB     82       POPS     C213     CTL2    -0.180000       12.0110           0
     10907 MEMB     82       POPS     H13R     HAL2     0.900000E-01   1.00800           0
     10908 MEMB     82       POPS     H13S     HAL2     0.900000E-01   1.00800           0
     10909 MEMB     82       POPS     C214     CTL2    -0.180000       12.0110           0
     10910 MEMB     82       POPS     H14R     HAL2     0.900000E-01   1.00800           0
     10911 MEMB     82       POPS     H14S     HAL2     0.900000E-01   1.00800           0
     10912 MEMB     82       POPS     C215     CTL2    -0.180000       12.0110           0
     10913 MEMB     82       POPS     H15R     HAL2     0.900000E-01   1.00800           0
     10914 MEMB     82       POPS     H15S     HAL2     0.900000E-01   1.00800           0
     10915 MEMB     82       POPS     C216     CTL2    -0.180000       12.0110           0
     10916 MEMB     82       POPS     H16R     HAL2     0.900000E-01   1.00800           0
     10917 MEMB     82       POPS     H16S     HAL2     0.900000E-01   1.00800           0
     10918 MEMB     82       POPS     C217     CTL2    -0.180000       12.0110           0
     10919 MEMB     82       POPS     H17R     HAL2     0.900000E-01   1.00800           0
     10920 MEMB     82       POPS     H17S     HAL2     0.900000E-01   1.00800           0
     10921 MEMB     82       POPS     C218     CTL3    -0.270000       12.0110           0
     10922 MEMB     82       POPS     H18R     HAL3     0.900000E-01   1.00800           0
     10923 MEMB     82       POPS     H18S     HAL3     0.900000E-01   1.00800           0
     10924 MEMB     82       POPS     H18T     HAL3     0.900000E-01   1.00800           0
     10925 MEMB     82       POPS     C33      CTL2    -0.180000       12.0110           0
     10926 MEMB     82       POPS     H3X      HAL2     0.900000E-01   1.00800           0
     10927 MEMB     82       POPS     H3Y      HAL2     0.900000E-01   1.00800           0
     10928 MEMB     82       POPS     C34      CTL2    -0.180000       12.0110           0
     10929 MEMB     82       POPS     H4X      HAL2     0.900000E-01   1.00800           0
     10930 MEMB     82       POPS     H4Y      HAL2     0.900000E-01   1.00800           0
     10931 MEMB     82       POPS     C35      CTL2    -0.180000       12.0110           0
     10932 MEMB     82       POPS     H5X      HAL2     0.900000E-01   1.00800           0
     10933 MEMB     82       POPS     H5Y      HAL2     0.900000E-01   1.00800           0
     10934 MEMB     82       POPS     C36      CTL2    -0.180000       12.0110           0
     10935 MEMB     82       POPS     H6X      HAL2     0.900000E-01   1.00800           0
     10936 MEMB     82       POPS     H6Y      HAL2     0.900000E-01   1.00800           0
     10937 MEMB     82       POPS     C37      CTL2    -0.180000       12.0110           0
     10938 MEMB     82       POPS     H7X      HAL2     0.900000E-01   1.00800           0
     10939 MEMB     82       POPS     H7Y      HAL2     0.900000E-01   1.00800           0
     10940 MEMB     82       POPS     C38      CTL2    -0.180000       12.0110           0
     10941 MEMB     82       POPS     H8X      HAL2     0.900000E-01   1.00800           0
     10942 MEMB     82       POPS     H8Y      HAL2     0.900000E-01   1.00800           0
     10943 MEMB     82       POPS     C39      CTL2    -0.180000       12.0110           0
     10944 MEMB     82       POPS     H9X      HAL2     0.900000E-01   1.00800           0
     10945 MEMB     82       POPS     H9Y      HAL2     0.900000E-01   1.00800           0
     10946 MEMB     82       POPS     C310     CTL2    -0.180000       12.0110           0
     10947 MEMB     82       POPS     H10X     HAL2     0.900000E-01   1.00800           0
     10948 MEMB     82       POPS     H10Y     HAL2     0.900000E-01   1.00800           0
     10949 MEMB     82       POPS     C311     CTL2    -0.180000       12.0110           0
     10950 MEMB     82       POPS     H11X     HAL2     0.900000E-01   1.00800           0
     10951 MEMB     82       POPS     H11Y     HAL2     0.900000E-01   1.00800           0
     10952 MEMB     82       POPS     C312     CTL2    -0.180000       12.0110           0
     10953 MEMB     82       POPS     H12X     HAL2     0.900000E-01   1.00800           0
     10954 MEMB     82       POPS     H12Y     HAL2     0.900000E-01   1.00800           0
     10955 MEMB     82       POPS     C313     CTL2    -0.180000       12.0110           0
     10956 MEMB     82       POPS     H13X     HAL2     0.900000E-01   1.00800           0
     10957 MEMB     82       POPS     H13Y     HAL2     0.900000E-01   1.00800           0
     10958 MEMB     82       POPS     C314     CTL2    -0.180000       12.0110           0
     10959 MEMB     82       POPS     H14X     HAL2     0.900000E-01   1.00800           0
     10960 MEMB     82       POPS     H14Y     HAL2     0.900000E-01   1.00800           0
     10961 MEMB     82       POPS     C315     CTL2    -0.180000       12.0110           0
     10962 MEMB     82       POPS     H15X     HAL2     0.900000E-01   1.00800           0
     10963 MEMB     82       POPS     H15Y     HAL2     0.900000E-01   1.00800           0
     10964 MEMB     82       POPS     C316     CTL3    -0.270000       12.0110           0
     10965 MEMB     82       POPS     H16X     HAL3     0.900000E-01   1.00800           0
     10966 MEMB     82       POPS     H16Y     HAL3     0.900000E-01   1.00800           0
     10967 MEMB     82       POPS     H16Z     HAL3     0.900000E-01   1.00800           0
     10968 MEMB     83       POPC     N        NTL     -0.600000       14.0070           0
     10969 MEMB     83       POPC     C12      CTL2    -0.100000       12.0110           0
     10970 MEMB     83       POPC     H12A     HL       0.250000       1.00800           0
     10971 MEMB     83       POPC     H12B     HL       0.250000       1.00800           0
     10972 MEMB     83       POPC     C13      CTL5    -0.350000       12.0110           0
     10973 MEMB     83       POPC     H13A     HL       0.250000       1.00800           0
     10974 MEMB     83       POPC     H13B     HL       0.250000       1.00800           0
     10975 MEMB     83       POPC     H13C     HL       0.250000       1.00800           0
     10976 MEMB     83       POPC     C14      CTL5    -0.350000       12.0110           0
     10977 MEMB     83       POPC     H14A     HL       0.250000       1.00800           0
     10978 MEMB     83       POPC     H14B     HL       0.250000       1.00800           0
     10979 MEMB     83       POPC     H14C     HL       0.250000       1.00800           0
     10980 MEMB     83       POPC     C15      CTL5    -0.350000       12.0110           0
     10981 MEMB     83       POPC     H15A     HL       0.250000       1.00800           0
     10982 MEMB     83       POPC     H15B     HL       0.250000       1.00800           0
     10983 MEMB     83       POPC     H15C     HL       0.250000       1.00800           0
     10984 MEMB     83       POPC     C11      CTL2    -0.800000E-01   12.0110           0
     10985 MEMB     83       POPC     H11A     HAL2     0.900000E-01   1.00800           0
     10986 MEMB     83       POPC     H11B     HAL2     0.900000E-01   1.00800           0
     10987 MEMB     83       POPC     P        PL       1.500000       30.9740           0
     10988 MEMB     83       POPC     O13      O2L     -0.780000       15.9994           0
     10989 MEMB     83       POPC     O14      O2L     -0.780000       15.9994           0
     10990 MEMB     83       POPC     O12      OSLP    -0.570000       15.9994           0
     10991 MEMB     83       POPC     O11      OSLP    -0.570000       15.9994           0
     10992 MEMB     83       POPC     C1       CTL2    -0.800000E-01   12.0110           0
     10993 MEMB     83       POPC     HA       HAL2     0.900000E-01   1.00800           0
     10994 MEMB     83       POPC     HB       HAL2     0.900000E-01   1.00800           0
     10995 MEMB     83       POPC     C2       CTL1     0.170000       12.0110           0
     10996 MEMB     83       POPC     HS       HAL1     0.900000E-01   1.00800           0
     10997 MEMB     83       POPC     O21      OSL     -0.490000       15.9994           0
     10998 MEMB     83       POPC     C21      CL       0.900000       12.0110           0
     10999 MEMB     83       POPC     O22      OBL     -0.630000       15.9994           0
     11000 MEMB     83       POPC     C22      CTL2    -0.220000       12.0110           0
     11001 MEMB     83       POPC     H2R      HAL2     0.900000E-01   1.00800           0
     11002 MEMB     83       POPC     H2S      HAL2     0.900000E-01   1.00800           0
     11003 MEMB     83       POPC     C3       CTL2     0.800000E-01   12.0110           0
     11004 MEMB     83       POPC     HX       HAL2     0.900000E-01   1.00800           0
     11005 MEMB     83       POPC     HY       HAL2     0.900000E-01   1.00800           0
     11006 MEMB     83       POPC     O31      OSL     -0.490000       15.9994           0
     11007 MEMB     83       POPC     C31      CL       0.900000       12.0110           0
     11008 MEMB     83       POPC     O32      OBL     -0.630000       15.9994           0
     11009 MEMB     83       POPC     C32      CTL2    -0.220000       12.0110           0
     11010 MEMB     83       POPC     H2X      HAL2     0.900000E-01   1.00800           0
     11011 MEMB     83       POPC     H2Y      HAL2     0.900000E-01   1.00800           0
     11012 MEMB     83       POPC     C23      CTL2    -0.180000       12.0110           0
     11013 MEMB     83       POPC     H3R      HAL2     0.900000E-01   1.00800           0
     11014 MEMB     83       POPC     H3S      HAL2     0.900000E-01   1.00800           0
     11015 MEMB     83       POPC     C24      CTL2    -0.180000       12.0110           0
     11016 MEMB     83       POPC     H4R      HAL2     0.900000E-01   1.00800           0
     11017 MEMB     83       POPC     H4S      HAL2     0.900000E-01   1.00800           0
     11018 MEMB     83       POPC     C25      CTL2    -0.180000       12.0110           0
     11019 MEMB     83       POPC     H5R      HAL2     0.900000E-01   1.00800           0
     11020 MEMB     83       POPC     H5S      HAL2     0.900000E-01   1.00800           0
     11021 MEMB     83       POPC     C26      CTL2    -0.180000       12.0110           0
     11022 MEMB     83       POPC     H6R      HAL2     0.900000E-01   1.00800           0
     11023 MEMB     83       POPC     H6S      HAL2     0.900000E-01   1.00800           0
     11024 MEMB     83       POPC     C27      CTL2    -0.180000       12.0110           0
     11025 MEMB     83       POPC     H7R      HAL2     0.900000E-01   1.00800           0
     11026 MEMB     83       POPC     H7S      HAL2     0.900000E-01   1.00800           0
     11027 MEMB     83       POPC     C28      CTL2    -0.180000       12.0110           0
     11028 MEMB     83       POPC     H8R      HAL2     0.900000E-01   1.00800           0
     11029 MEMB     83       POPC     H8S      HAL2     0.900000E-01   1.00800           0
     11030 MEMB     83       POPC     C29      CEL1    -0.150000       12.0110           0
     11031 MEMB     83       POPC     H91      HEL1     0.150000       1.00800           0
     11032 MEMB     83       POPC     C210     CEL1    -0.150000       12.0110           0
     11033 MEMB     83       POPC     H101     HEL1     0.150000       1.00800           0
     11034 MEMB     83       POPC     C211     CTL2    -0.180000       12.0110           0
     11035 MEMB     83       POPC     H11R     HAL2     0.900000E-01   1.00800           0
     11036 MEMB     83       POPC     H11S     HAL2     0.900000E-01   1.00800           0
     11037 MEMB     83       POPC     C212     CTL2    -0.180000       12.0110           0
     11038 MEMB     83       POPC     H12R     HAL2     0.900000E-01   1.00800           0
     11039 MEMB     83       POPC     H12S     HAL2     0.900000E-01   1.00800           0
     11040 MEMB     83       POPC     C213     CTL2    -0.180000       12.0110           0
     11041 MEMB     83       POPC     H13R     HAL2     0.900000E-01   1.00800           0
     11042 MEMB     83       POPC     H13S     HAL2     0.900000E-01   1.00800           0
     11043 MEMB     83       POPC     C214     CTL2    -0.180000       12.0110           0
     11044 MEMB     83       POPC     H14R     HAL2     0.900000E-01   1.00800           0
     11045 MEMB     83       POPC     H14S     HAL2     0.900000E-01   1.00800           0
     11046 MEMB     83       POPC     C215     CTL2    -0.180000       12.0110           0
     11047 MEMB     83       POPC     H15R     HAL2     0.900000E-01   1.00800           0
     11048 MEMB     83       POPC     H15S     HAL2     0.900000E-01   1.00800           0
     11049 MEMB     83       POPC     C216     CTL2    -0.180000       12.0110           0
     11050 MEMB     83       POPC     H16R     HAL2     0.900000E-01   1.00800           0
     11051 MEMB     83       POPC     H16S     HAL2     0.900000E-01   1.00800           0
     11052 MEMB     83       POPC     C217     CTL2    -0.180000       12.0110           0
     11053 MEMB     83       POPC     H17R     HAL2     0.900000E-01   1.00800           0
     11054 MEMB     83       POPC     H17S     HAL2     0.900000E-01   1.00800           0
     11055 MEMB     83       POPC     C218     CTL3    -0.270000       12.0110           0
     11056 MEMB     83       POPC     H18R     HAL3     0.900000E-01   1.00800           0
     11057 MEMB     83       POPC     H18S     HAL3     0.900000E-01   1.00800           0
     11058 MEMB     83       POPC     H18T     HAL3     0.900000E-01   1.00800           0
     11059 MEMB     83       POPC     C33      CTL2    -0.180000       12.0110           0
     11060 MEMB     83       POPC     H3X      HAL2     0.900000E-01   1.00800           0
     11061 MEMB     83       POPC     H3Y      HAL2     0.900000E-01   1.00800           0
     11062 MEMB     83       POPC     C34      CTL2    -0.180000       12.0110           0
     11063 MEMB     83       POPC     H4X      HAL2     0.900000E-01   1.00800           0
     11064 MEMB     83       POPC     H4Y      HAL2     0.900000E-01   1.00800           0
     11065 MEMB     83       POPC     C35      CTL2    -0.180000       12.0110           0
     11066 MEMB     83       POPC     H5X      HAL2     0.900000E-01   1.00800           0
     11067 MEMB     83       POPC     H5Y      HAL2     0.900000E-01   1.00800           0
     11068 MEMB     83       POPC     C36      CTL2    -0.180000       12.0110           0
     11069 MEMB     83       POPC     H6X      HAL2     0.900000E-01   1.00800           0
     11070 MEMB     83       POPC     H6Y      HAL2     0.900000E-01   1.00800           0
     11071 MEMB     83       POPC     C37      CTL2    -0.180000       12.0110           0
     11072 MEMB     83       POPC     H7X      HAL2     0.900000E-01   1.00800           0
     11073 MEMB     83       POPC     H7Y      HAL2     0.900000E-01   1.00800           0
     11074 MEMB     83       POPC     C38      CTL2    -0.180000       12.0110           0
     11075 MEMB     83       POPC     H8X      HAL2     0.900000E-01   1.00800           0
     11076 MEMB     83       POPC     H8Y      HAL2     0.900000E-01   1.00800           0
     11077 MEMB     83       POPC     C39      CTL2    -0.180000       12.0110           0
     11078 MEMB     83       POPC     H9X      HAL2     0.900000E-01   1.00800           0
     11079 MEMB     83       POPC     H9Y      HAL2     0.900000E-01   1.00800           0
     11080 MEMB     83       POPC     C310     CTL2    -0.180000       12.0110           0
     11081 MEMB     83       POPC     H10X     HAL2     0.900000E-01   1.00800           0
     11082 MEMB     83       POPC     H10Y     HAL2     0.900000E-01   1.00800           0
     11083 MEMB     83       POPC     C311     CTL2    -0.180000       12.0110           0
     11084 MEMB     83       POPC     H11X     HAL2     0.900000E-01   1.00800           0
     11085 MEMB     83       POPC     H11Y     HAL2     0.900000E-01   1.00800           0
     11086 MEMB     83       POPC     C312     CTL2    -0.180000       12.0110           0
     11087 MEMB     83       POPC     H12X     HAL2     0.900000E-01   1.00800           0
     11088 MEMB     83       POPC     H12Y     HAL2     0.900000E-01   1.00800           0
     11089 MEMB     83       POPC     C313     CTL2    -0.180000       12.0110           0
     11090 MEMB     83       POPC     H13X     HAL2     0.900000E-01   1.00800           0
     11091 MEMB     83       POPC     H13Y     HAL2     0.900000E-01   1.00800           0
     11092 MEMB     83       POPC     C314     CTL2    -0.180000       12.0110           0
     11093 MEMB     83       POPC     H14X     HAL2     0.900000E-01   1.00800           0
     11094 MEMB     83       POPC     H14Y     HAL2     0.900000E-01   1.00800           0
     11095 MEMB     83       POPC     C315     CTL2    -0.180000       12.0110           0
     11096 MEMB     83       POPC     H15X     HAL2     0.900000E-01   1.00800           0
     11097 MEMB     83       POPC     H15Y     HAL2     0.900000E-01   1.00800           0
     11098 MEMB     83       POPC     C316     CTL3    -0.270000       12.0110           0
     11099 MEMB     83       POPC     H16X     HAL3     0.900000E-01   1.00800           0
     11100 MEMB     83       POPC     H16Y     HAL3     0.900000E-01   1.00800           0
     11101 MEMB     83       POPC     H16Z     HAL3     0.900000E-01   1.00800           0
     11102 MEMB     84       POPC     N        NTL     -0.600000       14.0070           0
     11103 MEMB     84       POPC     C12      CTL2    -0.100000       12.0110           0
     11104 MEMB     84       POPC     H12A     HL       0.250000       1.00800           0
     11105 MEMB     84       POPC     H12B     HL       0.250000       1.00800           0
     11106 MEMB     84       POPC     C13      CTL5    -0.350000       12.0110           0
     11107 MEMB     84       POPC     H13A     HL       0.250000       1.00800           0
     11108 MEMB     84       POPC     H13B     HL       0.250000       1.00800           0
     11109 MEMB     84       POPC     H13C     HL       0.250000       1.00800           0
     11110 MEMB     84       POPC     C14      CTL5    -0.350000       12.0110           0
     11111 MEMB     84       POPC     H14A     HL       0.250000       1.00800           0
     11112 MEMB     84       POPC     H14B     HL       0.250000       1.00800           0
     11113 MEMB     84       POPC     H14C     HL       0.250000       1.00800           0
     11114 MEMB     84       POPC     C15      CTL5    -0.350000       12.0110           0
     11115 MEMB     84       POPC     H15A     HL       0.250000       1.00800           0
     11116 MEMB     84       POPC     H15B     HL       0.250000       1.00800           0
     11117 MEMB     84       POPC     H15C     HL       0.250000       1.00800           0
     11118 MEMB     84       POPC     C11      CTL2    -0.800000E-01   12.0110           0
     11119 MEMB     84       POPC     H11A     HAL2     0.900000E-01   1.00800           0
     11120 MEMB     84       POPC     H11B     HAL2     0.900000E-01   1.00800           0
     11121 MEMB     84       POPC     P        PL       1.500000       30.9740           0
     11122 MEMB     84       POPC     O13      O2L     -0.780000       15.9994           0
     11123 MEMB     84       POPC     O14      O2L     -0.780000       15.9994           0
     11124 MEMB     84       POPC     O12      OSLP    -0.570000       15.9994           0
     11125 MEMB     84       POPC     O11      OSLP    -0.570000       15.9994           0
     11126 MEMB     84       POPC     C1       CTL2    -0.800000E-01   12.0110           0
     11127 MEMB     84       POPC     HA       HAL2     0.900000E-01   1.00800           0
     11128 MEMB     84       POPC     HB       HAL2     0.900000E-01   1.00800           0
     11129 MEMB     84       POPC     C2       CTL1     0.170000       12.0110           0
     11130 MEMB     84       POPC     HS       HAL1     0.900000E-01   1.00800           0
     11131 MEMB     84       POPC     O21      OSL     -0.490000       15.9994           0
     11132 MEMB     84       POPC     C21      CL       0.900000       12.0110           0
     11133 MEMB     84       POPC     O22      OBL     -0.630000       15.9994           0
     11134 MEMB     84       POPC     C22      CTL2    -0.220000       12.0110           0
     11135 MEMB     84       POPC     H2R      HAL2     0.900000E-01   1.00800           0
     11136 MEMB     84       POPC     H2S      HAL2     0.900000E-01   1.00800           0
     11137 MEMB     84       POPC     C3       CTL2     0.800000E-01   12.0110           0
     11138 MEMB     84       POPC     HX       HAL2     0.900000E-01   1.00800           0
     11139 MEMB     84       POPC     HY       HAL2     0.900000E-01   1.00800           0
     11140 MEMB     84       POPC     O31      OSL     -0.490000       15.9994           0
     11141 MEMB     84       POPC     C31      CL       0.900000       12.0110           0
     11142 MEMB     84       POPC     O32      OBL     -0.630000       15.9994           0
     11143 MEMB     84       POPC     C32      CTL2    -0.220000       12.0110           0
     11144 MEMB     84       POPC     H2X      HAL2     0.900000E-01   1.00800           0
     11145 MEMB     84       POPC     H2Y      HAL2     0.900000E-01   1.00800           0
     11146 MEMB     84       POPC     C23      CTL2    -0.180000       12.0110           0
     11147 MEMB     84       POPC     H3R      HAL2     0.900000E-01   1.00800           0
     11148 MEMB     84       POPC     H3S      HAL2     0.900000E-01   1.00800           0
     11149 MEMB     84       POPC     C24      CTL2    -0.180000       12.0110           0
     11150 MEMB     84       POPC     H4R      HAL2     0.900000E-01   1.00800           0
     11151 MEMB     84       POPC     H4S      HAL2     0.900000E-01   1.00800           0
     11152 MEMB     84       POPC     C25      CTL2    -0.180000       12.0110           0
     11153 MEMB     84       POPC     H5R      HAL2     0.900000E-01   1.00800           0
     11154 MEMB     84       POPC     H5S      HAL2     0.900000E-01   1.00800           0
     11155 MEMB     84       POPC     C26      CTL2    -0.180000       12.0110           0
     11156 MEMB     84       POPC     H6R      HAL2     0.900000E-01   1.00800           0
     11157 MEMB     84       POPC     H6S      HAL2     0.900000E-01   1.00800           0
     11158 MEMB     84       POPC     C27      CTL2    -0.180000       12.0110           0
     11159 MEMB     84       POPC     H7R      HAL2     0.900000E-01   1.00800           0
     11160 MEMB     84       POPC     H7S      HAL2     0.900000E-01   1.00800           0
     11161 MEMB     84       POPC     C28      CTL2    -0.180000       12.0110           0
     11162 MEMB     84       POPC     H8R      HAL2     0.900000E-01   1.00800           0
     11163 MEMB     84       POPC     H8S      HAL2     0.900000E-01   1.00800           0
     11164 MEMB     84       POPC     C29      CEL1    -0.150000       12.0110           0
     11165 MEMB     84       POPC     H91      HEL1     0.150000       1.00800           0
     11166 MEMB     84       POPC     C210     CEL1    -0.150000       12.0110           0
     11167 MEMB     84       POPC     H101     HEL1     0.150000       1.00800           0
     11168 MEMB     84       POPC     C211     CTL2    -0.180000       12.0110           0
     11169 MEMB     84       POPC     H11R     HAL2     0.900000E-01   1.00800           0
     11170 MEMB     84       POPC     H11S     HAL2     0.900000E-01   1.00800           0
     11171 MEMB     84       POPC     C212     CTL2    -0.180000       12.0110           0
     11172 MEMB     84       POPC     H12R     HAL2     0.900000E-01   1.00800           0
     11173 MEMB     84       POPC     H12S     HAL2     0.900000E-01   1.00800           0
     11174 MEMB     84       POPC     C213     CTL2    -0.180000       12.0110           0
     11175 MEMB     84       POPC     H13R     HAL2     0.900000E-01   1.00800           0
     11176 MEMB     84       POPC     H13S     HAL2     0.900000E-01   1.00800           0
     11177 MEMB     84       POPC     C214     CTL2    -0.180000       12.0110           0
     11178 MEMB     84       POPC     H14R     HAL2     0.900000E-01   1.00800           0
     11179 MEMB     84       POPC     H14S     HAL2     0.900000E-01   1.00800           0
     11180 MEMB     84       POPC     C215     CTL2    -0.180000       12.0110           0
     11181 MEMB     84       POPC     H15R     HAL2     0.900000E-01   1.00800           0
     11182 MEMB     84       POPC     H15S     HAL2     0.900000E-01   1.00800           0
     11183 MEMB     84       POPC     C216     CTL2    -0.180000       12.0110           0
     11184 MEMB     84       POPC     H16R     HAL2     0.900000E-01   1.00800           0
     11185 MEMB     84       POPC     H16S     HAL2     0.900000E-01   1.00800           0
     11186 MEMB     84       POPC     C217     CTL2    -0.180000       12.0110           0
     11187 MEMB     84       POPC     H17R     HAL2     0.900000E-01   1.00800           0
     11188 MEMB     84       POPC     H17S     HAL2     0.900000E-01   1.00800           0
     11189 MEMB     84       POPC     C218     CTL3    -0.270000       12.0110           0
     11190 MEMB     84       POPC     H18R     HAL3     0.900000E-01   1.00800           0
     11191 MEMB     84       POPC     H18S     HAL3     0.900000E-01   1.00800           0
     11192 MEMB     84       POPC     H18T     HAL3     0.900000E-01   1.00800           0
     11193 MEMB     84       POPC     C33      CTL2    -0.180000       12.0110           0
     11194 MEMB     84       POPC     H3X      HAL2     0.900000E-01   1.00800           0
     11195 MEMB     84       POPC     H3Y      HAL2     0.900000E-01   1.00800           0
     11196 MEMB     84       POPC     C34      CTL2    -0.180000       12.0110           0
     11197 MEMB     84       POPC     H4X      HAL2     0.900000E-01   1.00800           0
     11198 MEMB     84       POPC     H4Y      HAL2     0.900000E-01   1.00800           0
     11199 MEMB     84       POPC     C35      CTL2    -0.180000       12.0110           0
     11200 MEMB     84       POPC     H5X      HAL2     0.900000E-01   1.00800           0
     11201 MEMB     84       POPC     H5Y      HAL2     0.900000E-01   1.00800           0
     11202 MEMB     84       POPC     C36      CTL2    -0.180000       12.0110           0
     11203 MEMB     84       POPC     H6X      HAL2     0.900000E-01   1.00800           0
     11204 MEMB     84       POPC     H6Y      HAL2     0.900000E-01   1.00800           0
     11205 MEMB     84       POPC     C37      CTL2    -0.180000       12.0110           0
     11206 MEMB     84       POPC     H7X      HAL2     0.900000E-01   1.00800           0
     11207 MEMB     84       POPC     H7Y      HAL2     0.900000E-01   1.00800           0
     11208 MEMB     84       POPC     C38      CTL2    -0.180000       12.0110           0
     11209 MEMB     84       POPC     H8X      HAL2     0.900000E-01   1.00800           0
     11210 MEMB     84       POPC     H8Y      HAL2     0.900000E-01   1.00800           0
     11211 MEMB     84       POPC     C39      CTL2    -0.180000       12.0110           0
     11212 MEMB     84       POPC     H9X      HAL2     0.900000E-01   1.00800           0
     11213 MEMB     84       POPC     H9Y      HAL2     0.900000E-01   1.00800           0
     11214 MEMB     84       POPC     C310     CTL2    -0.180000       12.0110           0
     11215 MEMB     84       POPC     H10X     HAL2     0.900000E-01   1.00800           0
     11216 MEMB     84       POPC     H10Y     HAL2     0.900000E-01   1.00800           0
     11217 MEMB     84       POPC     C311     CTL2    -0.180000       12.0110           0
     11218 MEMB     84       POPC     H11X     HAL2     0.900000E-01   1.00800           0
     11219 MEMB     84       POPC     H11Y     HAL2     0.900000E-01   1.00800           0
     11220 MEMB     84       POPC     C312     CTL2    -0.180000       12.0110           0
     11221 MEMB     84       POPC     H12X     HAL2     0.900000E-01   1.00800           0
     11222 MEMB     84       POPC     H12Y     HAL2     0.900000E-01   1.00800           0
     11223 MEMB     84       POPC     C313     CTL2    -0.180000       12.0110           0
     11224 MEMB     84       POPC     H13X     HAL2     0.900000E-01   1.00800           0
     11225 MEMB     84       POPC     H13Y     HAL2     0.900000E-01   1.00800           0
     11226 MEMB     84       POPC     C314     CTL2    -0.180000       12.0110           0
     11227 MEMB     84       POPC     H14X     HAL2     0.900000E-01   1.00800           0
     11228 MEMB     84       POPC     H14Y     HAL2     0.900000E-01   1.00800           0
     11229 MEMB     84       POPC     C315     CTL2    -0.180000       12.0110           0
     11230 MEMB     84       POPC     H15X     HAL2     0.900000E-01   1.00800           0
     11231 MEMB     84       POPC     H15Y     HAL2     0.900000E-01   1.00800           0
     11232 MEMB     84       POPC     C316     CTL3    -0.270000       12.0110           0
     11233 MEMB     84       POPC     H16X     HAL3     0.900000E-01   1.00800           0
     11234 MEMB     84       POPC     H16Y     HAL3     0.900000E-01   1.00800           0
     11235 MEMB     84       POPC     H16Z     HAL3     0.900000E-01   1.00800           0
     11236 MEMB     85       POPC     N        NTL     -0.600000       14.0070           0
     11237 MEMB     85       POPC     C12      CTL2    -0.100000       12.0110           0
     11238 MEMB     85       POPC     H12A     HL       0.250000       1.00800           0
     11239 MEMB     85       POPC     H12B     HL       0.250000       1.00800           0
     11240 MEMB     85       POPC     C13      CTL5    -0.350000       12.0110           0
     11241 MEMB     85       POPC     H13A     HL       0.250000       1.00800           0
     11242 MEMB     85       POPC     H13B     HL       0.250000       1.00800           0
     11243 MEMB     85       POPC     H13C     HL       0.250000       1.00800           0
     11244 MEMB     85       POPC     C14      CTL5    -0.350000       12.0110           0
     11245 MEMB     85       POPC     H14A     HL       0.250000       1.00800           0
     11246 MEMB     85       POPC     H14B     HL       0.250000       1.00800           0
     11247 MEMB     85       POPC     H14C     HL       0.250000       1.00800           0
     11248 MEMB     85       POPC     C15      CTL5    -0.350000       12.0110           0
     11249 MEMB     85       POPC     H15A     HL       0.250000       1.00800           0
     11250 MEMB     85       POPC     H15B     HL       0.250000       1.00800           0
     11251 MEMB     85       POPC     H15C     HL       0.250000       1.00800           0
     11252 MEMB     85       POPC     C11      CTL2    -0.800000E-01   12.0110           0
     11253 MEMB     85       POPC     H11A     HAL2     0.900000E-01   1.00800           0
     11254 MEMB     85       POPC     H11B     HAL2     0.900000E-01   1.00800           0
     11255 MEMB     85       POPC     P        PL       1.500000       30.9740           0
     11256 MEMB     85       POPC     O13      O2L     -0.780000       15.9994           0
     11257 MEMB     85       POPC     O14      O2L     -0.780000       15.9994           0
     11258 MEMB     85       POPC     O12      OSLP    -0.570000       15.9994           0
     11259 MEMB     85       POPC     O11      OSLP    -0.570000       15.9994           0
     11260 MEMB     85       POPC     C1       CTL2    -0.800000E-01   12.0110           0
     11261 MEMB     85       POPC     HA       HAL2     0.900000E-01   1.00800           0
     11262 MEMB     85       POPC     HB       HAL2     0.900000E-01   1.00800           0
     11263 MEMB     85       POPC     C2       CTL1     0.170000       12.0110           0
     11264 MEMB     85       POPC     HS       HAL1     0.900000E-01   1.00800           0
     11265 MEMB     85       POPC     O21      OSL     -0.490000       15.9994           0
     11266 MEMB     85       POPC     C21      CL       0.900000       12.0110           0
     11267 MEMB     85       POPC     O22      OBL     -0.630000       15.9994           0
     11268 MEMB     85       POPC     C22      CTL2    -0.220000       12.0110           0
     11269 MEMB     85       POPC     H2R      HAL2     0.900000E-01   1.00800           0
     11270 MEMB     85       POPC     H2S      HAL2     0.900000E-01   1.00800           0
     11271 MEMB     85       POPC     C3       CTL2     0.800000E-01   12.0110           0
     11272 MEMB     85       POPC     HX       HAL2     0.900000E-01   1.00800           0
     11273 MEMB     85       POPC     HY       HAL2     0.900000E-01   1.00800           0
     11274 MEMB     85       POPC     O31      OSL     -0.490000       15.9994           0
     11275 MEMB     85       POPC     C31      CL       0.900000       12.0110           0
     11276 MEMB     85       POPC     O32      OBL     -0.630000       15.9994           0
     11277 MEMB     85       POPC     C32      CTL2    -0.220000       12.0110           0
     11278 MEMB     85       POPC     H2X      HAL2     0.900000E-01   1.00800           0
     11279 MEMB     85       POPC     H2Y      HAL2     0.900000E-01   1.00800           0
     11280 MEMB     85       POPC     C23      CTL2    -0.180000       12.0110           0
     11281 MEMB     85       POPC     H3R      HAL2     0.900000E-01   1.00800           0
     11282 MEMB     85       POPC     H3S      HAL2     0.900000E-01   1.00800           0
     11283 MEMB     85       POPC     C24      CTL2    -0.180000       12.0110           0
     11284 MEMB     85       POPC     H4R      HAL2     0.900000E-01   1.00800           0
     11285 MEMB     85       POPC     H4S      HAL2     0.900000E-01   1.00800           0
     11286 MEMB     85       POPC     C25      CTL2    -0.180000       12.0110           0
     11287 MEMB     85       POPC     H5R      HAL2     0.900000E-01   1.00800           0
     11288 MEMB     85       POPC     H5S      HAL2     0.900000E-01   1.00800           0
     11289 MEMB     85       POPC     C26      CTL2    -0.180000       12.0110           0
     11290 MEMB     85       POPC     H6R      HAL2     0.900000E-01   1.00800           0
     11291 MEMB     85       POPC     H6S      HAL2     0.900000E-01   1.00800           0
     11292 MEMB     85       POPC     C27      CTL2    -0.180000       12.0110           0
     11293 MEMB     85       POPC     H7R      HAL2     0.900000E-01   1.00800           0
     11294 MEMB     85       POPC     H7S      HAL2     0.900000E-01   1.00800           0
     11295 MEMB     85       POPC     C28      CTL2    -0.180000       12.0110           0
     11296 MEMB     85       POPC     H8R      HAL2     0.900000E-01   1.00800           0
     11297 MEMB     85       POPC     H8S      HAL2     0.900000E-01   1.00800           0
     11298 MEMB     85       POPC     C29      CEL1    -0.150000       12.0110           0
     11299 MEMB     85       POPC     H91      HEL1     0.150000       1.00800           0
     11300 MEMB     85       POPC     C210     CEL1    -0.150000       12.0110           0
     11301 MEMB     85       POPC     H101     HEL1     0.150000       1.00800           0
     11302 MEMB     85       POPC     C211     CTL2    -0.180000       12.0110           0
     11303 MEMB     85       POPC     H11R     HAL2     0.900000E-01   1.00800           0
     11304 MEMB     85       POPC     H11S     HAL2     0.900000E-01   1.00800           0
     11305 MEMB     85       POPC     C212     CTL2    -0.180000       12.0110           0
     11306 MEMB     85       POPC     H12R     HAL2     0.900000E-01   1.00800           0
     11307 MEMB     85       POPC     H12S     HAL2     0.900000E-01   1.00800           0
     11308 MEMB     85       POPC     C213     CTL2    -0.180000       12.0110           0
     11309 MEMB     85       POPC     H13R     HAL2     0.900000E-01   1.00800           0
     11310 MEMB     85       POPC     H13S     HAL2     0.900000E-01   1.00800           0
     11311 MEMB     85       POPC     C214     CTL2    -0.180000       12.0110           0
     11312 MEMB     85       POPC     H14R     HAL2     0.900000E-01   1.00800           0
     11313 MEMB     85       POPC     H14S     HAL2     0.900000E-01   1.00800           0
     11314 MEMB     85       POPC     C215     CTL2    -0.180000       12.0110           0
     11315 MEMB     85       POPC     H15R     HAL2     0.900000E-01   1.00800           0
     11316 MEMB     85       POPC     H15S     HAL2     0.900000E-01   1.00800           0
     11317 MEMB     85       POPC     C216     CTL2    -0.180000       12.0110           0
     11318 MEMB     85       POPC     H16R     HAL2     0.900000E-01   1.00800           0
     11319 MEMB     85       POPC     H16S     HAL2     0.900000E-01   1.00800           0
     11320 MEMB     85       POPC     C217     CTL2    -0.180000       12.0110           0
     11321 MEMB     85       POPC     H17R     HAL2     0.900000E-01   1.00800           0
     11322 MEMB     85       POPC     H17S     HAL2     0.900000E-01   1.00800           0
     11323 MEMB     85       POPC     C218     CTL3    -0.270000       12.0110           0
     11324 MEMB     85       POPC     H18R     HAL3     0.900000E-01   1.00800           0
     11325 MEMB     85       POPC     H18S     HAL3     0.900000E-01   1.00800           0
     11326 MEMB     85       POPC     H18T     HAL3     0.900000E-01   1.00800           0
     11327 MEMB     85       POPC     C33      CTL2    -0.180000       12.0110           0
     11328 MEMB     85       POPC     H3X      HAL2     0.900000E-01   1.00800           0
     11329 MEMB     85       POPC     H3Y      HAL2     0.900000E-01   1.00800           0
     11330 MEMB     85       POPC     C34      CTL2    -0.180000       12.0110           0
     11331 MEMB     85       POPC     H4X      HAL2     0.900000E-01   1.00800           0
     11332 MEMB     85       POPC     H4Y      HAL2     0.900000E-01   1.00800           0
     11333 MEMB     85       POPC     C35      CTL2    -0.180000       12.0110           0
     11334 MEMB     85       POPC     H5X      HAL2     0.900000E-01   1.00800           0
     11335 MEMB     85       POPC     H5Y      HAL2     0.900000E-01   1.00800           0
     11336 MEMB     85       POPC     C36      CTL2    -0.180000       12.0110           0
     11337 MEMB     85       POPC     H6X      HAL2     0.900000E-01   1.00800           0
     11338 MEMB     85       POPC     H6Y      HAL2     0.900000E-01   1.00800           0
     11339 MEMB     85       POPC     C37      CTL2    -0.180000       12.0110           0
     11340 MEMB     85       POPC     H7X      HAL2     0.900000E-01   1.00800           0
     11341 MEMB     85       POPC     H7Y      HAL2     0.900000E-01   1.00800           0
     11342 MEMB     85       POPC     C38      CTL2    -0.180000       12.0110           0
     11343 MEMB     85       POPC     H8X      HAL2     0.900000E-01   1.00800           0
     11344 MEMB     85       POPC     H8Y      HAL2     0.900000E-01   1.00800           0
     11345 MEMB     85       POPC     C39      CTL2    -0.180000       12.0110           0
     11346 MEMB     85       POPC     H9X      HAL2     0.900000E-01   1.00800           0
     11347 MEMB     85       POPC     H9Y      HAL2     0.900000E-01   1.00800           0
     11348 MEMB     85       POPC     C310     CTL2    -0.180000       12.0110           0
     11349 MEMB     85       POPC     H10X     HAL2     0.900000E-01   1.00800           0
     11350 MEMB     85       POPC     H10Y     HAL2     0.900000E-01   1.00800           0
     11351 MEMB     85       POPC     C311     CTL2    -0.180000       12.0110           0
     11352 MEMB     85       POPC     H11X     HAL2     0.900000E-01   1.00800           0
     11353 MEMB     85       POPC     H11Y     HAL2     0.900000E-01   1.00800           0
     11354 MEMB     85       POPC     C312     CTL2    -0.180000       12.0110           0
     11355 MEMB     85       POPC     H12X     HAL2     0.900000E-01   1.00800           0
     11356 MEMB     85       POPC     H12Y     HAL2     0.900000E-01   1.00800           0
     11357 MEMB     85       POPC     C313     CTL2    -0.180000       12.0110           0
     11358 MEMB     85       POPC     H13X     HAL2     0.900000E-01   1.00800           0
     11359 MEMB     85       POPC     H13Y     HAL2     0.900000E-01   1.00800           0
     11360 MEMB     85       POPC     C314     CTL2    -0.180000       12.0110           0
     11361 MEMB     85       POPC     H14X     HAL2     0.900000E-01   1.00800           0
     11362 MEMB     85       POPC     H14Y     HAL2     0.900000E-01   1.00800           0
     11363 MEMB     85       POPC     C315     CTL2    -0.180000       12.0110           0
     11364 MEMB     85       POPC     H15X     HAL2     0.900000E-01   1.00800           0
     11365 MEMB     85       POPC     H15Y     HAL2     0.900000E-01   1.00800           0
     11366 MEMB     85       POPC     C316     CTL3    -0.270000       12.0110           0
     11367 MEMB     85       POPC     H16X     HAL3     0.900000E-01   1.00800           0
     11368 MEMB     85       POPC     H16Y     HAL3     0.900000E-01   1.00800           0
     11369 MEMB     85       POPC     H16Z     HAL3     0.900000E-01   1.00800           0
     11370 MEMB     86       POPS     N        NH3L    -0.300000       14.0070           0
     11371 MEMB     86       POPS     HN1      HCL      0.330000       1.00800           0
     11372 MEMB     86       POPS     HN2      HCL      0.330000       1.00800           0
     11373 MEMB     86       POPS     HN3      HCL      0.330000       1.00800           0
     11374 MEMB     86       POPS     C12      CTL1     0.210000       12.0110           0
     11375 MEMB     86       POPS     H12A     HBL      0.100000       1.00800           0
     11376 MEMB     86       POPS     C13      CCL      0.340000       12.0110           0
     11377 MEMB     86       POPS     O13A     OCL     -0.670000       15.9994           0
     11378 MEMB     86       POPS     O13B     OCL     -0.670000       15.9994           0
     11379 MEMB     86       POPS     C11      CTL2    -0.800000E-01   12.0110           0
     11380 MEMB     86       POPS     H11A     HAL2     0.900000E-01   1.00800           0
     11381 MEMB     86       POPS     H11B     HAL2     0.900000E-01   1.00800           0
     11382 MEMB     86       POPS     P        PL       1.500000       30.9740           0
     11383 MEMB     86       POPS     O13      O2L     -0.780000       15.9994           0
     11384 MEMB     86       POPS     O14      O2L     -0.780000       15.9994           0
     11385 MEMB     86       POPS     O12      OSLP    -0.570000       15.9994           0
     11386 MEMB     86       POPS     O11      OSLP    -0.570000       15.9994           0
     11387 MEMB     86       POPS     C1       CTL2    -0.800000E-01   12.0110           0
     11388 MEMB     86       POPS     HA       HAL2     0.900000E-01   1.00800           0
     11389 MEMB     86       POPS     HB       HAL2     0.900000E-01   1.00800           0
     11390 MEMB     86       POPS     C2       CTL1     0.170000       12.0110           0
     11391 MEMB     86       POPS     HS       HAL1     0.900000E-01   1.00800           0
     11392 MEMB     86       POPS     O21      OSL     -0.490000       15.9994           0
     11393 MEMB     86       POPS     C21      CL       0.900000       12.0110           0
     11394 MEMB     86       POPS     O22      OBL     -0.630000       15.9994           0
     11395 MEMB     86       POPS     C22      CTL2    -0.220000       12.0110           0
     11396 MEMB     86       POPS     H2R      HAL2     0.900000E-01   1.00800           0
     11397 MEMB     86       POPS     H2S      HAL2     0.900000E-01   1.00800           0
     11398 MEMB     86       POPS     C3       CTL2     0.800000E-01   12.0110           0
     11399 MEMB     86       POPS     HX       HAL2     0.900000E-01   1.00800           0
     11400 MEMB     86       POPS     HY       HAL2     0.900000E-01   1.00800           0
     11401 MEMB     86       POPS     O31      OSL     -0.490000       15.9994           0
     11402 MEMB     86       POPS     C31      CL       0.900000       12.0110           0
     11403 MEMB     86       POPS     O32      OBL     -0.630000       15.9994           0
     11404 MEMB     86       POPS     C32      CTL2    -0.220000       12.0110           0
     11405 MEMB     86       POPS     H2X      HAL2     0.900000E-01   1.00800           0
     11406 MEMB     86       POPS     H2Y      HAL2     0.900000E-01   1.00800           0
     11407 MEMB     86       POPS     C23      CTL2    -0.180000       12.0110           0
     11408 MEMB     86       POPS     H3R      HAL2     0.900000E-01   1.00800           0
     11409 MEMB     86       POPS     H3S      HAL2     0.900000E-01   1.00800           0
     11410 MEMB     86       POPS     C24      CTL2    -0.180000       12.0110           0
     11411 MEMB     86       POPS     H4R      HAL2     0.900000E-01   1.00800           0
     11412 MEMB     86       POPS     H4S      HAL2     0.900000E-01   1.00800           0
     11413 MEMB     86       POPS     C25      CTL2    -0.180000       12.0110           0
     11414 MEMB     86       POPS     H5R      HAL2     0.900000E-01   1.00800           0
     11415 MEMB     86       POPS     H5S      HAL2     0.900000E-01   1.00800           0
     11416 MEMB     86       POPS     C26      CTL2    -0.180000       12.0110           0
     11417 MEMB     86       POPS     H6R      HAL2     0.900000E-01   1.00800           0
     11418 MEMB     86       POPS     H6S      HAL2     0.900000E-01   1.00800           0
     11419 MEMB     86       POPS     C27      CTL2    -0.180000       12.0110           0
     11420 MEMB     86       POPS     H7R      HAL2     0.900000E-01   1.00800           0
     11421 MEMB     86       POPS     H7S      HAL2     0.900000E-01   1.00800           0
     11422 MEMB     86       POPS     C28      CTL2    -0.180000       12.0110           0
     11423 MEMB     86       POPS     H8R      HAL2     0.900000E-01   1.00800           0
     11424 MEMB     86       POPS     H8S      HAL2     0.900000E-01   1.00800           0
     11425 MEMB     86       POPS     C29      CEL1    -0.150000       12.0110           0
     11426 MEMB     86       POPS     H91      HEL1     0.150000       1.00800           0
     11427 MEMB     86       POPS     C210     CEL1    -0.150000       12.0110           0
     11428 MEMB     86       POPS     H101     HEL1     0.150000       1.00800           0
     11429 MEMB     86       POPS     C211     CTL2    -0.180000       12.0110           0
     11430 MEMB     86       POPS     H11R     HAL2     0.900000E-01   1.00800           0
     11431 MEMB     86       POPS     H11S     HAL2     0.900000E-01   1.00800           0
     11432 MEMB     86       POPS     C212     CTL2    -0.180000       12.0110           0
     11433 MEMB     86       POPS     H12R     HAL2     0.900000E-01   1.00800           0
     11434 MEMB     86       POPS     H12S     HAL2     0.900000E-01   1.00800           0
     11435 MEMB     86       POPS     C213     CTL2    -0.180000       12.0110           0
     11436 MEMB     86       POPS     H13R     HAL2     0.900000E-01   1.00800           0
     11437 MEMB     86       POPS     H13S     HAL2     0.900000E-01   1.00800           0
     11438 MEMB     86       POPS     C214     CTL2    -0.180000       12.0110           0
     11439 MEMB     86       POPS     H14R     HAL2     0.900000E-01   1.00800           0
     11440 MEMB     86       POPS     H14S     HAL2     0.900000E-01   1.00800           0
     11441 MEMB     86       POPS     C215     CTL2    -0.180000       12.0110           0
     11442 MEMB     86       POPS     H15R     HAL2     0.900000E-01   1.00800           0
     11443 MEMB     86       POPS     H15S     HAL2     0.900000E-01   1.00800           0
     11444 MEMB     86       POPS     C216     CTL2    -0.180000       12.0110           0
     11445 MEMB     86       POPS     H16R     HAL2     0.900000E-01   1.00800           0
     11446 MEMB     86       POPS     H16S     HAL2     0.900000E-01   1.00800           0
     11447 MEMB     86       POPS     C217     CTL2    -0.180000       12.0110           0
     11448 MEMB     86       POPS     H17R     HAL2     0.900000E-01   1.00800           0
     11449 MEMB     86       POPS     H17S     HAL2     0.900000E-01   1.00800           0
     11450 MEMB     86       POPS     C218     CTL3    -0.270000       12.0110           0
     11451 MEMB     86       POPS     H18R     HAL3     0.900000E-01   1.00800           0
     11452 MEMB     86       POPS     H18S     HAL3     0.900000E-01   1.00800           0
     11453 MEMB     86       POPS     H18T     HAL3     0.900000E-01   1.00800           0
     11454 MEMB     86       POPS     C33      CTL2    -0.180000       12.0110           0
     11455 MEMB     86       POPS     H3X      HAL2     0.900000E-01   1.00800           0
     11456 MEMB     86       POPS     H3Y      HAL2     0.900000E-01   1.00800           0
     11457 MEMB     86       POPS     C34      CTL2    -0.180000       12.0110           0
     11458 MEMB     86       POPS     H4X      HAL2     0.900000E-01   1.00800           0
     11459 MEMB     86       POPS     H4Y      HAL2     0.900000E-01   1.00800           0
     11460 MEMB     86       POPS     C35      CTL2    -0.180000       12.0110           0
     11461 MEMB     86       POPS     H5X      HAL2     0.900000E-01   1.00800           0
     11462 MEMB     86       POPS     H5Y      HAL2     0.900000E-01   1.00800           0
     11463 MEMB     86       POPS     C36      CTL2    -0.180000       12.0110           0
     11464 MEMB     86       POPS     H6X      HAL2     0.900000E-01   1.00800           0
     11465 MEMB     86       POPS     H6Y      HAL2     0.900000E-01   1.00800           0
     11466 MEMB     86       POPS     C37      CTL2    -0.180000       12.0110           0
     11467 MEMB     86       POPS     H7X      HAL2     0.900000E-01   1.00800           0
     11468 MEMB     86       POPS     H7Y      HAL2     0.900000E-01   1.00800           0
     11469 MEMB     86       POPS     C38      CTL2    -0.180000       12.0110           0
     11470 MEMB     86       POPS     H8X      HAL2     0.900000E-01   1.00800           0
     11471 MEMB     86       POPS     H8Y      HAL2     0.900000E-01   1.00800           0
     11472 MEMB     86       POPS     C39      CTL2    -0.180000       12.0110           0
     11473 MEMB     86       POPS     H9X      HAL2     0.900000E-01   1.00800           0
     11474 MEMB     86       POPS     H9Y      HAL2     0.900000E-01   1.00800           0
     11475 MEMB     86       POPS     C310     CTL2    -0.180000       12.0110           0
     11476 MEMB     86       POPS     H10X     HAL2     0.900000E-01   1.00800           0
     11477 MEMB     86       POPS     H10Y     HAL2     0.900000E-01   1.00800           0
     11478 MEMB     86       POPS     C311     CTL2    -0.180000       12.0110           0
     11479 MEMB     86       POPS     H11X     HAL2     0.900000E-01   1.00800           0
     11480 MEMB     86       POPS     H11Y     HAL2     0.900000E-01   1.00800           0
     11481 MEMB     86       POPS     C312     CTL2    -0.180000       12.0110           0
     11482 MEMB     86       POPS     H12X     HAL2     0.900000E-01   1.00800           0
     11483 MEMB     86       POPS     H12Y     HAL2     0.900000E-01   1.00800           0
     11484 MEMB     86       POPS     C313     CTL2    -0.180000       12.0110           0
     11485 MEMB     86       POPS     H13X     HAL2     0.900000E-01   1.00800           0
     11486 MEMB     86       POPS     H13Y     HAL2     0.900000E-01   1.00800           0
     11487 MEMB     86       POPS     C314     CTL2    -0.180000       12.0110           0
     11488 MEMB     86       POPS     H14X     HAL2     0.900000E-01   1.00800           0
     11489 MEMB     86       POPS     H14Y     HAL2     0.900000E-01   1.00800           0
     11490 MEMB     86       POPS     C315     CTL2    -0.180000       12.0110           0
     11491 MEMB     86       POPS     H15X     HAL2     0.900000E-01   1.00800           0
     11492 MEMB     86       POPS     H15Y     HAL2     0.900000E-01   1.00800           0
     11493 MEMB     86       POPS     C316     CTL3    -0.270000       12.0110           0
     11494 MEMB     86       POPS     H16X     HAL3     0.900000E-01   1.00800           0
     11495 MEMB     86       POPS     H16Y     HAL3     0.900000E-01   1.00800           0
     11496 MEMB     86       POPS     H16Z     HAL3     0.900000E-01   1.00800           0
     11497 MEMB     87       POPC     N        NTL     -0.600000       14.0070           0
     11498 MEMB     87       POPC     C12      CTL2    -0.100000       12.0110           0
     11499 MEMB     87       POPC     H12A     HL       0.250000       1.00800           0
     11500 MEMB     87       POPC     H12B     HL       0.250000       1.00800           0
     11501 MEMB     87       POPC     C13      CTL5    -0.350000       12.0110           0
     11502 MEMB     87       POPC     H13A     HL       0.250000       1.00800           0
     11503 MEMB     87       POPC     H13B     HL       0.250000       1.00800           0
     11504 MEMB     87       POPC     H13C     HL       0.250000       1.00800           0
     11505 MEMB     87       POPC     C14      CTL5    -0.350000       12.0110           0
     11506 MEMB     87       POPC     H14A     HL       0.250000       1.00800           0
     11507 MEMB     87       POPC     H14B     HL       0.250000       1.00800           0
     11508 MEMB     87       POPC     H14C     HL       0.250000       1.00800           0
     11509 MEMB     87       POPC     C15      CTL5    -0.350000       12.0110           0
     11510 MEMB     87       POPC     H15A     HL       0.250000       1.00800           0
     11511 MEMB     87       POPC     H15B     HL       0.250000       1.00800           0
     11512 MEMB     87       POPC     H15C     HL       0.250000       1.00800           0
     11513 MEMB     87       POPC     C11      CTL2    -0.800000E-01   12.0110           0
     11514 MEMB     87       POPC     H11A     HAL2     0.900000E-01   1.00800           0
     11515 MEMB     87       POPC     H11B     HAL2     0.900000E-01   1.00800           0
     11516 MEMB     87       POPC     P        PL       1.500000       30.9740           0
     11517 MEMB     87       POPC     O13      O2L     -0.780000       15.9994           0
     11518 MEMB     87       POPC     O14      O2L     -0.780000       15.9994           0
     11519 MEMB     87       POPC     O12      OSLP    -0.570000       15.9994           0
     11520 MEMB     87       POPC     O11      OSLP    -0.570000       15.9994           0
     11521 MEMB     87       POPC     C1       CTL2    -0.800000E-01   12.0110           0
     11522 MEMB     87       POPC     HA       HAL2     0.900000E-01   1.00800           0
     11523 MEMB     87       POPC     HB       HAL2     0.900000E-01   1.00800           0
     11524 MEMB     87       POPC     C2       CTL1     0.170000       12.0110           0
     11525 MEMB     87       POPC     HS       HAL1     0.900000E-01   1.00800           0
     11526 MEMB     87       POPC     O21      OSL     -0.490000       15.9994           0
     11527 MEMB     87       POPC     C21      CL       0.900000       12.0110           0
     11528 MEMB     87       POPC     O22      OBL     -0.630000       15.9994           0
     11529 MEMB     87       POPC     C22      CTL2    -0.220000       12.0110           0
     11530 MEMB     87       POPC     H2R      HAL2     0.900000E-01   1.00800           0
     11531 MEMB     87       POPC     H2S      HAL2     0.900000E-01   1.00800           0
     11532 MEMB     87       POPC     C3       CTL2     0.800000E-01   12.0110           0
     11533 MEMB     87       POPC     HX       HAL2     0.900000E-01   1.00800           0
     11534 MEMB     87       POPC     HY       HAL2     0.900000E-01   1.00800           0
     11535 MEMB     87       POPC     O31      OSL     -0.490000       15.9994           0
     11536 MEMB     87       POPC     C31      CL       0.900000       12.0110           0
     11537 MEMB     87       POPC     O32      OBL     -0.630000       15.9994           0
     11538 MEMB     87       POPC     C32      CTL2    -0.220000       12.0110           0
     11539 MEMB     87       POPC     H2X      HAL2     0.900000E-01   1.00800           0
     11540 MEMB     87       POPC     H2Y      HAL2     0.900000E-01   1.00800           0
     11541 MEMB     87       POPC     C23      CTL2    -0.180000       12.0110           0
     11542 MEMB     87       POPC     H3R      HAL2     0.900000E-01   1.00800           0
     11543 MEMB     87       POPC     H3S      HAL2     0.900000E-01   1.00800           0
     11544 MEMB     87       POPC     C24      CTL2    -0.180000       12.0110           0
     11545 MEMB     87       POPC     H4R      HAL2     0.900000E-01   1.00800           0
     11546 MEMB     87       POPC     H4S      HAL2     0.900000E-01   1.00800           0
     11547 MEMB     87       POPC     C25      CTL2    -0.180000       12.0110           0
     11548 MEMB     87       POPC     H5R      HAL2     0.900000E-01   1.00800           0
     11549 MEMB     87       POPC     H5S      HAL2     0.900000E-01   1.00800           0
     11550 MEMB     87       POPC     C26      CTL2    -0.180000       12.0110           0
     11551 MEMB     87       POPC     H6R      HAL2     0.900000E-01   1.00800           0
     11552 MEMB     87       POPC     H6S      HAL2     0.900000E-01   1.00800           0
     11553 MEMB     87       POPC     C27      CTL2    -0.180000       12.0110           0
     11554 MEMB     87       POPC     H7R      HAL2     0.900000E-01   1.00800           0
     11555 MEMB     87       POPC     H7S      HAL2     0.900000E-01   1.00800           0
     11556 MEMB     87       POPC     C28      CTL2    -0.180000       12.0110           0
     11557 MEMB     87       POPC     H8R      HAL2     0.900000E-01   1.00800           0
     11558 MEMB     87       POPC     H8S      HAL2     0.900000E-01   1.00800           0
     11559 MEMB     87       POPC     C29      CEL1    -0.150000       12.0110           0
     11560 MEMB     87       POPC     H91      HEL1     0.150000       1.00800           0
     11561 MEMB     87       POPC     C210     CEL1    -0.150000       12.0110           0
     11562 MEMB     87       POPC     H101     HEL1     0.150000       1.00800           0
     11563 MEMB     87       POPC     C211     CTL2    -0.180000       12.0110           0
     11564 MEMB     87       POPC     H11R     HAL2     0.900000E-01   1.00800           0
     11565 MEMB     87       POPC     H11S     HAL2     0.900000E-01   1.00800           0
     11566 MEMB     87       POPC     C212     CTL2    -0.180000       12.0110           0
     11567 MEMB     87       POPC     H12R     HAL2     0.900000E-01   1.00800           0
     11568 MEMB     87       POPC     H12S     HAL2     0.900000E-01   1.00800           0
     11569 MEMB     87       POPC     C213     CTL2    -0.180000       12.0110           0
     11570 MEMB     87       POPC     H13R     HAL2     0.900000E-01   1.00800           0
     11571 MEMB     87       POPC     H13S     HAL2     0.900000E-01   1.00800           0
     11572 MEMB     87       POPC     C214     CTL2    -0.180000       12.0110           0
     11573 MEMB     87       POPC     H14R     HAL2     0.900000E-01   1.00800           0
     11574 MEMB     87       POPC     H14S     HAL2     0.900000E-01   1.00800           0
     11575 MEMB     87       POPC     C215     CTL2    -0.180000       12.0110           0
     11576 MEMB     87       POPC     H15R     HAL2     0.900000E-01   1.00800           0
     11577 MEMB     87       POPC     H15S     HAL2     0.900000E-01   1.00800           0
     11578 MEMB     87       POPC     C216     CTL2    -0.180000       12.0110           0
     11579 MEMB     87       POPC     H16R     HAL2     0.900000E-01   1.00800           0
     11580 MEMB     87       POPC     H16S     HAL2     0.900000E-01   1.00800           0
     11581 MEMB     87       POPC     C217     CTL2    -0.180000       12.0110           0
     11582 MEMB     87       POPC     H17R     HAL2     0.900000E-01   1.00800           0
     11583 MEMB     87       POPC     H17S     HAL2     0.900000E-01   1.00800           0
     11584 MEMB     87       POPC     C218     CTL3    -0.270000       12.0110           0
     11585 MEMB     87       POPC     H18R     HAL3     0.900000E-01   1.00800           0
     11586 MEMB     87       POPC     H18S     HAL3     0.900000E-01   1.00800           0
     11587 MEMB     87       POPC     H18T     HAL3     0.900000E-01   1.00800           0
     11588 MEMB     87       POPC     C33      CTL2    -0.180000       12.0110           0
     11589 MEMB     87       POPC     H3X      HAL2     0.900000E-01   1.00800           0
     11590 MEMB     87       POPC     H3Y      HAL2     0.900000E-01   1.00800           0
     11591 MEMB     87       POPC     C34      CTL2    -0.180000       12.0110           0
     11592 MEMB     87       POPC     H4X      HAL2     0.900000E-01   1.00800           0
     11593 MEMB     87       POPC     H4Y      HAL2     0.900000E-01   1.00800           0
     11594 MEMB     87       POPC     C35      CTL2    -0.180000       12.0110           0
     11595 MEMB     87       POPC     H5X      HAL2     0.900000E-01   1.00800           0
     11596 MEMB     87       POPC     H5Y      HAL2     0.900000E-01   1.00800           0
     11597 MEMB     87       POPC     C36      CTL2    -0.180000       12.0110           0
     11598 MEMB     87       POPC     H6X      HAL2     0.900000E-01   1.00800           0
     11599 MEMB     87       POPC     H6Y      HAL2     0.900000E-01   1.00800           0
     11600 MEMB     87       POPC     C37      CTL2    -0.180000       12.0110           0
     11601 MEMB     87       POPC     H7X      HAL2     0.900000E-01   1.00800           0
     11602 MEMB     87       POPC     H7Y      HAL2     0.900000E-01   1.00800           0
     11603 MEMB     87       POPC     C38      CTL2    -0.180000       12.0110           0
     11604 MEMB     87       POPC     H8X      HAL2     0.900000E-01   1.00800           0
     11605 MEMB     87       POPC     H8Y      HAL2     0.900000E-01   1.00800           0
     11606 MEMB     87       POPC     C39      CTL2    -0.180000       12.0110           0
     11607 MEMB     87       POPC     H9X      HAL2     0.900000E-01   1.00800           0
     11608 MEMB     87       POPC     H9Y      HAL2     0.900000E-01   1.00800           0
     11609 MEMB     87       POPC     C310     CTL2    -0.180000       12.0110           0
     11610 MEMB     87       POPC     H10X     HAL2     0.900000E-01   1.00800           0
     11611 MEMB     87       POPC     H10Y     HAL2     0.900000E-01   1.00800           0
     11612 MEMB     87       POPC     C311     CTL2    -0.180000       12.0110           0
     11613 MEMB     87       POPC     H11X     HAL2     0.900000E-01   1.00800           0
     11614 MEMB     87       POPC     H11Y     HAL2     0.900000E-01   1.00800           0
     11615 MEMB     87       POPC     C312     CTL2    -0.180000       12.0110           0
     11616 MEMB     87       POPC     H12X     HAL2     0.900000E-01   1.00800           0
     11617 MEMB     87       POPC     H12Y     HAL2     0.900000E-01   1.00800           0
     11618 MEMB     87       POPC     C313     CTL2    -0.180000       12.0110           0
     11619 MEMB     87       POPC     H13X     HAL2     0.900000E-01   1.00800           0
     11620 MEMB     87       POPC     H13Y     HAL2     0.900000E-01   1.00800           0
     11621 MEMB     87       POPC     C314     CTL2    -0.180000       12.0110           0
     11622 MEMB     87       POPC     H14X     HAL2     0.900000E-01   1.00800           0
     11623 MEMB     87       POPC     H14Y     HAL2     0.900000E-01   1.00800           0
     11624 MEMB     87       POPC     C315     CTL2    -0.180000       12.0110           0
     11625 MEMB     87       POPC     H15X     HAL2     0.900000E-01   1.00800           0
     11626 MEMB     87       POPC     H15Y     HAL2     0.900000E-01   1.00800           0
     11627 MEMB     87       POPC     C316     CTL3    -0.270000       12.0110           0
     11628 MEMB     87       POPC     H16X     HAL3     0.900000E-01   1.00800           0
     11629 MEMB     87       POPC     H16Y     HAL3     0.900000E-01   1.00800           0
     11630 MEMB     87       POPC     H16Z     HAL3     0.900000E-01   1.00800           0
     11631 MEMB     88       POPC     N        NTL     -0.600000       14.0070           0
     11632 MEMB     88       POPC     C12      CTL2    -0.100000       12.0110           0
     11633 MEMB     88       POPC     H12A     HL       0.250000       1.00800           0
     11634 MEMB     88       POPC     H12B     HL       0.250000       1.00800           0
     11635 MEMB     88       POPC     C13      CTL5    -0.350000       12.0110           0
     11636 MEMB     88       POPC     H13A     HL       0.250000       1.00800           0
     11637 MEMB     88       POPC     H13B     HL       0.250000       1.00800           0
     11638 MEMB     88       POPC     H13C     HL       0.250000       1.00800           0
     11639 MEMB     88       POPC     C14      CTL5    -0.350000       12.0110           0
     11640 MEMB     88       POPC     H14A     HL       0.250000       1.00800           0
     11641 MEMB     88       POPC     H14B     HL       0.250000       1.00800           0
     11642 MEMB     88       POPC     H14C     HL       0.250000       1.00800           0
     11643 MEMB     88       POPC     C15      CTL5    -0.350000       12.0110           0
     11644 MEMB     88       POPC     H15A     HL       0.250000       1.00800           0
     11645 MEMB     88       POPC     H15B     HL       0.250000       1.00800           0
     11646 MEMB     88       POPC     H15C     HL       0.250000       1.00800           0
     11647 MEMB     88       POPC     C11      CTL2    -0.800000E-01   12.0110           0
     11648 MEMB     88       POPC     H11A     HAL2     0.900000E-01   1.00800           0
     11649 MEMB     88       POPC     H11B     HAL2     0.900000E-01   1.00800           0
     11650 MEMB     88       POPC     P        PL       1.500000       30.9740           0
     11651 MEMB     88       POPC     O13      O2L     -0.780000       15.9994           0
     11652 MEMB     88       POPC     O14      O2L     -0.780000       15.9994           0
     11653 MEMB     88       POPC     O12      OSLP    -0.570000       15.9994           0
     11654 MEMB     88       POPC     O11      OSLP    -0.570000       15.9994           0
     11655 MEMB     88       POPC     C1       CTL2    -0.800000E-01   12.0110           0
     11656 MEMB     88       POPC     HA       HAL2     0.900000E-01   1.00800           0
     11657 MEMB     88       POPC     HB       HAL2     0.900000E-01   1.00800           0
     11658 MEMB     88       POPC     C2       CTL1     0.170000       12.0110           0
     11659 MEMB     88       POPC     HS       HAL1     0.900000E-01   1.00800           0
     11660 MEMB     88       POPC     O21      OSL     -0.490000       15.9994           0
     11661 MEMB     88       POPC     C21      CL       0.900000       12.0110           0
     11662 MEMB     88       POPC     O22      OBL     -0.630000       15.9994           0
     11663 MEMB     88       POPC     C22      CTL2    -0.220000       12.0110           0
     11664 MEMB     88       POPC     H2R      HAL2     0.900000E-01   1.00800           0
     11665 MEMB     88       POPC     H2S      HAL2     0.900000E-01   1.00800           0
     11666 MEMB     88       POPC     C3       CTL2     0.800000E-01   12.0110           0
     11667 MEMB     88       POPC     HX       HAL2     0.900000E-01   1.00800           0
     11668 MEMB     88       POPC     HY       HAL2     0.900000E-01   1.00800           0
     11669 MEMB     88       POPC     O31      OSL     -0.490000       15.9994           0
     11670 MEMB     88       POPC     C31      CL       0.900000       12.0110           0
     11671 MEMB     88       POPC     O32      OBL     -0.630000       15.9994           0
     11672 MEMB     88       POPC     C32      CTL2    -0.220000       12.0110           0
     11673 MEMB     88       POPC     H2X      HAL2     0.900000E-01   1.00800           0
     11674 MEMB     88       POPC     H2Y      HAL2     0.900000E-01   1.00800           0
     11675 MEMB     88       POPC     C23      CTL2    -0.180000       12.0110           0
     11676 MEMB     88       POPC     H3R      HAL2     0.900000E-01   1.00800           0
     11677 MEMB     88       POPC     H3S      HAL2     0.900000E-01   1.00800           0
     11678 MEMB     88       POPC     C24      CTL2    -0.180000       12.0110           0
     11679 MEMB     88       POPC     H4R      HAL2     0.900000E-01   1.00800           0
     11680 MEMB     88       POPC     H4S      HAL2     0.900000E-01   1.00800           0
     11681 MEMB     88       POPC     C25      CTL2    -0.180000       12.0110           0
     11682 MEMB     88       POPC     H5R      HAL2     0.900000E-01   1.00800           0
     11683 MEMB     88       POPC     H5S      HAL2     0.900000E-01   1.00800           0
     11684 MEMB     88       POPC     C26      CTL2    -0.180000       12.0110           0
     11685 MEMB     88       POPC     H6R      HAL2     0.900000E-01   1.00800           0
     11686 MEMB     88       POPC     H6S      HAL2     0.900000E-01   1.00800           0
     11687 MEMB     88       POPC     C27      CTL2    -0.180000       12.0110           0
     11688 MEMB     88       POPC     H7R      HAL2     0.900000E-01   1.00800           0
     11689 MEMB     88       POPC     H7S      HAL2     0.900000E-01   1.00800           0
     11690 MEMB     88       POPC     C28      CTL2    -0.180000       12.0110           0
     11691 MEMB     88       POPC     H8R      HAL2     0.900000E-01   1.00800           0
     11692 MEMB     88       POPC     H8S      HAL2     0.900000E-01   1.00800           0
     11693 MEMB     88       POPC     C29      CEL1    -0.150000       12.0110           0
     11694 MEMB     88       POPC     H91      HEL1     0.150000       1.00800           0
     11695 MEMB     88       POPC     C210     CEL1    -0.150000       12.0110           0
     11696 MEMB     88       POPC     H101     HEL1     0.150000       1.00800           0
     11697 MEMB     88       POPC     C211     CTL2    -0.180000       12.0110           0
     11698 MEMB     88       POPC     H11R     HAL2     0.900000E-01   1.00800           0
     11699 MEMB     88       POPC     H11S     HAL2     0.900000E-01   1.00800           0
     11700 MEMB     88       POPC     C212     CTL2    -0.180000       12.0110           0
     11701 MEMB     88       POPC     H12R     HAL2     0.900000E-01   1.00800           0
     11702 MEMB     88       POPC     H12S     HAL2     0.900000E-01   1.00800           0
     11703 MEMB     88       POPC     C213     CTL2    -0.180000       12.0110           0
     11704 MEMB     88       POPC     H13R     HAL2     0.900000E-01   1.00800           0
     11705 MEMB     88       POPC     H13S     HAL2     0.900000E-01   1.00800           0
     11706 MEMB     88       POPC     C214     CTL2    -0.180000       12.0110           0
     11707 MEMB     88       POPC     H14R     HAL2     0.900000E-01   1.00800           0
     11708 MEMB     88       POPC     H14S     HAL2     0.900000E-01   1.00800           0
     11709 MEMB     88       POPC     C215     CTL2    -0.180000       12.0110           0
     11710 MEMB     88       POPC     H15R     HAL2     0.900000E-01   1.00800           0
     11711 MEMB     88       POPC     H15S     HAL2     0.900000E-01   1.00800           0
     11712 MEMB     88       POPC     C216     CTL2    -0.180000       12.0110           0
     11713 MEMB     88       POPC     H16R     HAL2     0.900000E-01   1.00800           0
     11714 MEMB     88       POPC     H16S     HAL2     0.900000E-01   1.00800           0
     11715 MEMB     88       POPC     C217     CTL2    -0.180000       12.0110           0
     11716 MEMB     88       POPC     H17R     HAL2     0.900000E-01   1.00800           0
     11717 MEMB     88       POPC     H17S     HAL2     0.900000E-01   1.00800           0
     11718 MEMB     88       POPC     C218     CTL3    -0.270000       12.0110           0
     11719 MEMB     88       POPC     H18R     HAL3     0.900000E-01   1.00800           0
     11720 MEMB     88       POPC     H18S     HAL3     0.900000E-01   1.00800           0
     11721 MEMB     88       POPC     H18T     HAL3     0.900000E-01   1.00800           0
     11722 MEMB     88       POPC     C33      CTL2    -0.180000       12.0110           0
     11723 MEMB     88       POPC     H3X      HAL2     0.900000E-01   1.00800           0
     11724 MEMB     88       POPC     H3Y      HAL2     0.900000E-01   1.00800           0
     11725 MEMB     88       POPC     C34      CTL2    -0.180000       12.0110           0
     11726 MEMB     88       POPC     H4X      HAL2     0.900000E-01   1.00800           0
     11727 MEMB     88       POPC     H4Y      HAL2     0.900000E-01   1.00800           0
     11728 MEMB     88       POPC     C35      CTL2    -0.180000       12.0110           0
     11729 MEMB     88       POPC     H5X      HAL2     0.900000E-01   1.00800           0
     11730 MEMB     88       POPC     H5Y      HAL2     0.900000E-01   1.00800           0
     11731 MEMB     88       POPC     C36      CTL2    -0.180000       12.0110           0
     11732 MEMB     88       POPC     H6X      HAL2     0.900000E-01   1.00800           0
     11733 MEMB     88       POPC     H6Y      HAL2     0.900000E-01   1.00800           0
     11734 MEMB     88       POPC     C37      CTL2    -0.180000       12.0110           0
     11735 MEMB     88       POPC     H7X      HAL2     0.900000E-01   1.00800           0
     11736 MEMB     88       POPC     H7Y      HAL2     0.900000E-01   1.00800           0
     11737 MEMB     88       POPC     C38      CTL2    -0.180000       12.0110           0
     11738 MEMB     88       POPC     H8X      HAL2     0.900000E-01   1.00800           0
     11739 MEMB     88       POPC     H8Y      HAL2     0.900000E-01   1.00800           0
     11740 MEMB     88       POPC     C39      CTL2    -0.180000       12.0110           0
     11741 MEMB     88       POPC     H9X      HAL2     0.900000E-01   1.00800           0
     11742 MEMB     88       POPC     H9Y      HAL2     0.900000E-01   1.00800           0
     11743 MEMB     88       POPC     C310     CTL2    -0.180000       12.0110           0
     11744 MEMB     88       POPC     H10X     HAL2     0.900000E-01   1.00800           0
     11745 MEMB     88       POPC     H10Y     HAL2     0.900000E-01   1.00800           0
     11746 MEMB     88       POPC     C311     CTL2    -0.180000       12.0110           0
     11747 MEMB     88       POPC     H11X     HAL2     0.900000E-01   1.00800           0
     11748 MEMB     88       POPC     H11Y     HAL2     0.900000E-01   1.00800           0
     11749 MEMB     88       POPC     C312     CTL2    -0.180000       12.0110           0
     11750 MEMB     88       POPC     H12X     HAL2     0.900000E-01   1.00800           0
     11751 MEMB     88       POPC     H12Y     HAL2     0.900000E-01   1.00800           0
     11752 MEMB     88       POPC     C313     CTL2    -0.180000       12.0110           0
     11753 MEMB     88       POPC     H13X     HAL2     0.900000E-01   1.00800           0
     11754 MEMB     88       POPC     H13Y     HAL2     0.900000E-01   1.00800           0
     11755 MEMB     88       POPC     C314     CTL2    -0.180000       12.0110           0
     11756 MEMB     88       POPC     H14X     HAL2     0.900000E-01   1.00800           0
     11757 MEMB     88       POPC     H14Y     HAL2     0.900000E-01   1.00800           0
     11758 MEMB     88       POPC     C315     CTL2    -0.180000       12.0110           0
     11759 MEMB     88       POPC     H15X     HAL2     0.900000E-01   1.00800           0
     11760 MEMB     88       POPC     H15Y     HAL2     0.900000E-01   1.00800           0
     11761 MEMB     88       POPC     C316     CTL3    -0.270000       12.0110           0
     11762 MEMB     88       POPC     H16X     HAL3     0.900000E-01   1.00800           0
     11763 MEMB     88       POPC     H16Y     HAL3     0.900000E-01   1.00800           0
     11764 MEMB     88       POPC     H16Z     HAL3     0.900000E-01   1.00800           0
     11765 MEMB     89       POPC     N        NTL     -0.600000       14.0070           0
     11766 MEMB     89       POPC     C12      CTL2    -0.100000       12.0110           0
     11767 MEMB     89       POPC     H12A     HL       0.250000       1.00800           0
     11768 MEMB     89       POPC     H12B     HL       0.250000       1.00800           0
     11769 MEMB     89       POPC     C13      CTL5    -0.350000       12.0110           0
     11770 MEMB     89       POPC     H13A     HL       0.250000       1.00800           0
     11771 MEMB     89       POPC     H13B     HL       0.250000       1.00800           0
     11772 MEMB     89       POPC     H13C     HL       0.250000       1.00800           0
     11773 MEMB     89       POPC     C14      CTL5    -0.350000       12.0110           0
     11774 MEMB     89       POPC     H14A     HL       0.250000       1.00800           0
     11775 MEMB     89       POPC     H14B     HL       0.250000       1.00800           0
     11776 MEMB     89       POPC     H14C     HL       0.250000       1.00800           0
     11777 MEMB     89       POPC     C15      CTL5    -0.350000       12.0110           0
     11778 MEMB     89       POPC     H15A     HL       0.250000       1.00800           0
     11779 MEMB     89       POPC     H15B     HL       0.250000       1.00800           0
     11780 MEMB     89       POPC     H15C     HL       0.250000       1.00800           0
     11781 MEMB     89       POPC     C11      CTL2    -0.800000E-01   12.0110           0
     11782 MEMB     89       POPC     H11A     HAL2     0.900000E-01   1.00800           0
     11783 MEMB     89       POPC     H11B     HAL2     0.900000E-01   1.00800           0
     11784 MEMB     89       POPC     P        PL       1.500000       30.9740           0
     11785 MEMB     89       POPC     O13      O2L     -0.780000       15.9994           0
     11786 MEMB     89       POPC     O14      O2L     -0.780000       15.9994           0
     11787 MEMB     89       POPC     O12      OSLP    -0.570000       15.9994           0
     11788 MEMB     89       POPC     O11      OSLP    -0.570000       15.9994           0
     11789 MEMB     89       POPC     C1       CTL2    -0.800000E-01   12.0110           0
     11790 MEMB     89       POPC     HA       HAL2     0.900000E-01   1.00800           0
     11791 MEMB     89       POPC     HB       HAL2     0.900000E-01   1.00800           0
     11792 MEMB     89       POPC     C2       CTL1     0.170000       12.0110           0
     11793 MEMB     89       POPC     HS       HAL1     0.900000E-01   1.00800           0
     11794 MEMB     89       POPC     O21      OSL     -0.490000       15.9994           0
     11795 MEMB     89       POPC     C21      CL       0.900000       12.0110           0
     11796 MEMB     89       POPC     O22      OBL     -0.630000       15.9994           0
     11797 MEMB     89       POPC     C22      CTL2    -0.220000       12.0110           0
     11798 MEMB     89       POPC     H2R      HAL2     0.900000E-01   1.00800           0
     11799 MEMB     89       POPC     H2S      HAL2     0.900000E-01   1.00800           0
     11800 MEMB     89       POPC     C3       CTL2     0.800000E-01   12.0110           0
     11801 MEMB     89       POPC     HX       HAL2     0.900000E-01   1.00800           0
     11802 MEMB     89       POPC     HY       HAL2     0.900000E-01   1.00800           0
     11803 MEMB     89       POPC     O31      OSL     -0.490000       15.9994           0
     11804 MEMB     89       POPC     C31      CL       0.900000       12.0110           0
     11805 MEMB     89       POPC     O32      OBL     -0.630000       15.9994           0
     11806 MEMB     89       POPC     C32      CTL2    -0.220000       12.0110           0
     11807 MEMB     89       POPC     H2X      HAL2     0.900000E-01   1.00800           0
     11808 MEMB     89       POPC     H2Y      HAL2     0.900000E-01   1.00800           0
     11809 MEMB     89       POPC     C23      CTL2    -0.180000       12.0110           0
     11810 MEMB     89       POPC     H3R      HAL2     0.900000E-01   1.00800           0
     11811 MEMB     89       POPC     H3S      HAL2     0.900000E-01   1.00800           0
     11812 MEMB     89       POPC     C24      CTL2    -0.180000       12.0110           0
     11813 MEMB     89       POPC     H4R      HAL2     0.900000E-01   1.00800           0
     11814 MEMB     89       POPC     H4S      HAL2     0.900000E-01   1.00800           0
     11815 MEMB     89       POPC     C25      CTL2    -0.180000       12.0110           0
     11816 MEMB     89       POPC     H5R      HAL2     0.900000E-01   1.00800           0
     11817 MEMB     89       POPC     H5S      HAL2     0.900000E-01   1.00800           0
     11818 MEMB     89       POPC     C26      CTL2    -0.180000       12.0110           0
     11819 MEMB     89       POPC     H6R      HAL2     0.900000E-01   1.00800           0
     11820 MEMB     89       POPC     H6S      HAL2     0.900000E-01   1.00800           0
     11821 MEMB     89       POPC     C27      CTL2    -0.180000       12.0110           0
     11822 MEMB     89       POPC     H7R      HAL2     0.900000E-01   1.00800           0
     11823 MEMB     89       POPC     H7S      HAL2     0.900000E-01   1.00800           0
     11824 MEMB     89       POPC     C28      CTL2    -0.180000       12.0110           0
     11825 MEMB     89       POPC     H8R      HAL2     0.900000E-01   1.00800           0
     11826 MEMB     89       POPC     H8S      HAL2     0.900000E-01   1.00800           0
     11827 MEMB     89       POPC     C29      CEL1    -0.150000       12.0110           0
     11828 MEMB     89       POPC     H91      HEL1     0.150000       1.00800           0
     11829 MEMB     89       POPC     C210     CEL1    -0.150000       12.0110           0
     11830 MEMB     89       POPC     H101     HEL1     0.150000       1.00800           0
     11831 MEMB     89       POPC     C211     CTL2    -0.180000       12.0110           0
     11832 MEMB     89       POPC     H11R     HAL2     0.900000E-01   1.00800           0
     11833 MEMB     89       POPC     H11S     HAL2     0.900000E-01   1.00800           0
     11834 MEMB     89       POPC     C212     CTL2    -0.180000       12.0110           0
     11835 MEMB     89       POPC     H12R     HAL2     0.900000E-01   1.00800           0
     11836 MEMB     89       POPC     H12S     HAL2     0.900000E-01   1.00800           0
     11837 MEMB     89       POPC     C213     CTL2    -0.180000       12.0110           0
     11838 MEMB     89       POPC     H13R     HAL2     0.900000E-01   1.00800           0
     11839 MEMB     89       POPC     H13S     HAL2     0.900000E-01   1.00800           0
     11840 MEMB     89       POPC     C214     CTL2    -0.180000       12.0110           0
     11841 MEMB     89       POPC     H14R     HAL2     0.900000E-01   1.00800           0
     11842 MEMB     89       POPC     H14S     HAL2     0.900000E-01   1.00800           0
     11843 MEMB     89       POPC     C215     CTL2    -0.180000       12.0110           0
     11844 MEMB     89       POPC     H15R     HAL2     0.900000E-01   1.00800           0
     11845 MEMB     89       POPC     H15S     HAL2     0.900000E-01   1.00800           0
     11846 MEMB     89       POPC     C216     CTL2    -0.180000       12.0110           0
     11847 MEMB     89       POPC     H16R     HAL2     0.900000E-01   1.00800           0
     11848 MEMB     89       POPC     H16S     HAL2     0.900000E-01   1.00800           0
     11849 MEMB     89       POPC     C217     CTL2    -0.180000       12.0110           0
     11850 MEMB     89       POPC     H17R     HAL2     0.900000E-01   1.00800           0
     11851 MEMB     89       POPC     H17S     HAL2     0.900000E-01   1.00800           0
     11852 MEMB     89       POPC     C218     CTL3    -0.270000       12.0110           0
     11853 MEMB     89       POPC     H18R     HAL3     0.900000E-01   1.00800           0
     11854 MEMB     89       POPC     H18S     HAL3     0.900000E-01   1.00800           0
     11855 MEMB     89       POPC     H18T     HAL3     0.900000E-01   1.00800           0
     11856 MEMB     89       POPC     C33      CTL2    -0.180000       12.0110           0
     11857 MEMB     89       POPC     H3X      HAL2     0.900000E-01   1.00800           0
     11858 MEMB     89       POPC     H3Y      HAL2     0.900000E-01   1.00800           0
     11859 MEMB     89       POPC     C34      CTL2    -0.180000       12.0110           0
     11860 MEMB     89       POPC     H4X      HAL2     0.900000E-01   1.00800           0
     11861 MEMB     89       POPC     H4Y      HAL2     0.900000E-01   1.00800           0
     11862 MEMB     89       POPC     C35      CTL2    -0.180000       12.0110           0
     11863 MEMB     89       POPC     H5X      HAL2     0.900000E-01   1.00800           0
     11864 MEMB     89       POPC     H5Y      HAL2     0.900000E-01   1.00800           0
     11865 MEMB     89       POPC     C36      CTL2    -0.180000       12.0110           0
     11866 MEMB     89       POPC     H6X      HAL2     0.900000E-01   1.00800           0
     11867 MEMB     89       POPC     H6Y      HAL2     0.900000E-01   1.00800           0
     11868 MEMB     89       POPC     C37      CTL2    -0.180000       12.0110           0
     11869 MEMB     89       POPC     H7X      HAL2     0.900000E-01   1.00800           0
     11870 MEMB     89       POPC     H7Y      HAL2     0.900000E-01   1.00800           0
     11871 MEMB     89       POPC     C38      CTL2    -0.180000       12.0110           0
     11872 MEMB     89       POPC     H8X      HAL2     0.900000E-01   1.00800           0
     11873 MEMB     89       POPC     H8Y      HAL2     0.900000E-01   1.00800           0
     11874 MEMB     89       POPC     C39      CTL2    -0.180000       12.0110           0
     11875 MEMB     89       POPC     H9X      HAL2     0.900000E-01   1.00800           0
     11876 MEMB     89       POPC     H9Y      HAL2     0.900000E-01   1.00800           0
     11877 MEMB     89       POPC     C310     CTL2    -0.180000       12.0110           0
     11878 MEMB     89       POPC     H10X     HAL2     0.900000E-01   1.00800           0
     11879 MEMB     89       POPC     H10Y     HAL2     0.900000E-01   1.00800           0
     11880 MEMB     89       POPC     C311     CTL2    -0.180000       12.0110           0
     11881 MEMB     89       POPC     H11X     HAL2     0.900000E-01   1.00800           0
     11882 MEMB     89       POPC     H11Y     HAL2     0.900000E-01   1.00800           0
     11883 MEMB     89       POPC     C312     CTL2    -0.180000       12.0110           0
     11884 MEMB     89       POPC     H12X     HAL2     0.900000E-01   1.00800           0
     11885 MEMB     89       POPC     H12Y     HAL2     0.900000E-01   1.00800           0
     11886 MEMB     89       POPC     C313     CTL2    -0.180000       12.0110           0
     11887 MEMB     89       POPC     H13X     HAL2     0.900000E-01   1.00800           0
     11888 MEMB     89       POPC     H13Y     HAL2     0.900000E-01   1.00800           0
     11889 MEMB     89       POPC     C314     CTL2    -0.180000       12.0110           0
     11890 MEMB     89       POPC     H14X     HAL2     0.900000E-01   1.00800           0
     11891 MEMB     89       POPC     H14Y     HAL2     0.900000E-01   1.00800           0
     11892 MEMB     89       POPC     C315     CTL2    -0.180000       12.0110           0
     11893 MEMB     89       POPC     H15X     HAL2     0.900000E-01   1.00800           0
     11894 MEMB     89       POPC     H15Y     HAL2     0.900000E-01   1.00800           0
     11895 MEMB     89       POPC     C316     CTL3    -0.270000       12.0110           0
     11896 MEMB     89       POPC     H16X     HAL3     0.900000E-01   1.00800           0
     11897 MEMB     89       POPC     H16Y     HAL3     0.900000E-01   1.00800           0
     11898 MEMB     89       POPC     H16Z     HAL3     0.900000E-01   1.00800           0
     11899 MEMB     90       POPC     N        NTL     -0.600000       14.0070           0
     11900 MEMB     90       POPC     C12      CTL2    -0.100000       12.0110           0
     11901 MEMB     90       POPC     H12A     HL       0.250000       1.00800           0
     11902 MEMB     90       POPC     H12B     HL       0.250000       1.00800           0
     11903 MEMB     90       POPC     C13      CTL5    -0.350000       12.0110           0
     11904 MEMB     90       POPC     H13A     HL       0.250000       1.00800           0
     11905 MEMB     90       POPC     H13B     HL       0.250000       1.00800           0
     11906 MEMB     90       POPC     H13C     HL       0.250000       1.00800           0
     11907 MEMB     90       POPC     C14      CTL5    -0.350000       12.0110           0
     11908 MEMB     90       POPC     H14A     HL       0.250000       1.00800           0
     11909 MEMB     90       POPC     H14B     HL       0.250000       1.00800           0
     11910 MEMB     90       POPC     H14C     HL       0.250000       1.00800           0
     11911 MEMB     90       POPC     C15      CTL5    -0.350000       12.0110           0
     11912 MEMB     90       POPC     H15A     HL       0.250000       1.00800           0
     11913 MEMB     90       POPC     H15B     HL       0.250000       1.00800           0
     11914 MEMB     90       POPC     H15C     HL       0.250000       1.00800           0
     11915 MEMB     90       POPC     C11      CTL2    -0.800000E-01   12.0110           0
     11916 MEMB     90       POPC     H11A     HAL2     0.900000E-01   1.00800           0
     11917 MEMB     90       POPC     H11B     HAL2     0.900000E-01   1.00800           0
     11918 MEMB     90       POPC     P        PL       1.500000       30.9740           0
     11919 MEMB     90       POPC     O13      O2L     -0.780000       15.9994           0
     11920 MEMB     90       POPC     O14      O2L     -0.780000       15.9994           0
     11921 MEMB     90       POPC     O12      OSLP    -0.570000       15.9994           0
     11922 MEMB     90       POPC     O11      OSLP    -0.570000       15.9994           0
     11923 MEMB     90       POPC     C1       CTL2    -0.800000E-01   12.0110           0
     11924 MEMB     90       POPC     HA       HAL2     0.900000E-01   1.00800           0
     11925 MEMB     90       POPC     HB       HAL2     0.900000E-01   1.00800           0
     11926 MEMB     90       POPC     C2       CTL1     0.170000       12.0110           0
     11927 MEMB     90       POPC     HS       HAL1     0.900000E-01   1.00800           0
     11928 MEMB     90       POPC     O21      OSL     -0.490000       15.9994           0
     11929 MEMB     90       POPC     C21      CL       0.900000       12.0110           0
     11930 MEMB     90       POPC     O22      OBL     -0.630000       15.9994           0
     11931 MEMB     90       POPC     C22      CTL2    -0.220000       12.0110           0
     11932 MEMB     90       POPC     H2R      HAL2     0.900000E-01   1.00800           0
     11933 MEMB     90       POPC     H2S      HAL2     0.900000E-01   1.00800           0
     11934 MEMB     90       POPC     C3       CTL2     0.800000E-01   12.0110           0
     11935 MEMB     90       POPC     HX       HAL2     0.900000E-01   1.00800           0
     11936 MEMB     90       POPC     HY       HAL2     0.900000E-01   1.00800           0
     11937 MEMB     90       POPC     O31      OSL     -0.490000       15.9994           0
     11938 MEMB     90       POPC     C31      CL       0.900000       12.0110           0
     11939 MEMB     90       POPC     O32      OBL     -0.630000       15.9994           0
     11940 MEMB     90       POPC     C32      CTL2    -0.220000       12.0110           0
     11941 MEMB     90       POPC     H2X      HAL2     0.900000E-01   1.00800           0
     11942 MEMB     90       POPC     H2Y      HAL2     0.900000E-01   1.00800           0
     11943 MEMB     90       POPC     C23      CTL2    -0.180000       12.0110           0
     11944 MEMB     90       POPC     H3R      HAL2     0.900000E-01   1.00800           0
     11945 MEMB     90       POPC     H3S      HAL2     0.900000E-01   1.00800           0
     11946 MEMB     90       POPC     C24      CTL2    -0.180000       12.0110           0
     11947 MEMB     90       POPC     H4R      HAL2     0.900000E-01   1.00800           0
     11948 MEMB     90       POPC     H4S      HAL2     0.900000E-01   1.00800           0
     11949 MEMB     90       POPC     C25      CTL2    -0.180000       12.0110           0
     11950 MEMB     90       POPC     H5R      HAL2     0.900000E-01   1.00800           0
     11951 MEMB     90       POPC     H5S      HAL2     0.900000E-01   1.00800           0
     11952 MEMB     90       POPC     C26      CTL2    -0.180000       12.0110           0
     11953 MEMB     90       POPC     H6R      HAL2     0.900000E-01   1.00800           0
     11954 MEMB     90       POPC     H6S      HAL2     0.900000E-01   1.00800           0
     11955 MEMB     90       POPC     C27      CTL2    -0.180000       12.0110           0
     11956 MEMB     90       POPC     H7R      HAL2     0.900000E-01   1.00800           0
     11957 MEMB     90       POPC     H7S      HAL2     0.900000E-01   1.00800           0
     11958 MEMB     90       POPC     C28      CTL2    -0.180000       12.0110           0
     11959 MEMB     90       POPC     H8R      HAL2     0.900000E-01   1.00800           0
     11960 MEMB     90       POPC     H8S      HAL2     0.900000E-01   1.00800           0
     11961 MEMB     90       POPC     C29      CEL1    -0.150000       12.0110           0
     11962 MEMB     90       POPC     H91      HEL1     0.150000       1.00800           0
     11963 MEMB     90       POPC     C210     CEL1    -0.150000       12.0110           0
     11964 MEMB     90       POPC     H101     HEL1     0.150000       1.00800           0
     11965 MEMB     90       POPC     C211     CTL2    -0.180000       12.0110           0
     11966 MEMB     90       POPC     H11R     HAL2     0.900000E-01   1.00800           0
     11967 MEMB     90       POPC     H11S     HAL2     0.900000E-01   1.00800           0
     11968 MEMB     90       POPC     C212     CTL2    -0.180000       12.0110           0
     11969 MEMB     90       POPC     H12R     HAL2     0.900000E-01   1.00800           0
     11970 MEMB     90       POPC     H12S     HAL2     0.900000E-01   1.00800           0
     11971 MEMB     90       POPC     C213     CTL2    -0.180000       12.0110           0
     11972 MEMB     90       POPC     H13R     HAL2     0.900000E-01   1.00800           0
     11973 MEMB     90       POPC     H13S     HAL2     0.900000E-01   1.00800           0
     11974 MEMB     90       POPC     C214     CTL2    -0.180000       12.0110           0
     11975 MEMB     90       POPC     H14R     HAL2     0.900000E-01   1.00800           0
     11976 MEMB     90       POPC     H14S     HAL2     0.900000E-01   1.00800           0
     11977 MEMB     90       POPC     C215     CTL2    -0.180000       12.0110           0
     11978 MEMB     90       POPC     H15R     HAL2     0.900000E-01   1.00800           0
     11979 MEMB     90       POPC     H15S     HAL2     0.900000E-01   1.00800           0
     11980 MEMB     90       POPC     C216     CTL2    -0.180000       12.0110           0
     11981 MEMB     90       POPC     H16R     HAL2     0.900000E-01   1.00800           0
     11982 MEMB     90       POPC     H16S     HAL2     0.900000E-01   1.00800           0
     11983 MEMB     90       POPC     C217     CTL2    -0.180000       12.0110           0
     11984 MEMB     90       POPC     H17R     HAL2     0.900000E-01   1.00800           0
     11985 MEMB     90       POPC     H17S     HAL2     0.900000E-01   1.00800           0
     11986 MEMB     90       POPC     C218     CTL3    -0.270000       12.0110           0
     11987 MEMB     90       POPC     H18R     HAL3     0.900000E-01   1.00800           0
     11988 MEMB     90       POPC     H18S     HAL3     0.900000E-01   1.00800           0
     11989 MEMB     90       POPC     H18T     HAL3     0.900000E-01   1.00800           0
     11990 MEMB     90       POPC     C33      CTL2    -0.180000       12.0110           0
     11991 MEMB     90       POPC     H3X      HAL2     0.900000E-01   1.00800           0
     11992 MEMB     90       POPC     H3Y      HAL2     0.900000E-01   1.00800           0
     11993 MEMB     90       POPC     C34      CTL2    -0.180000       12.0110           0
     11994 MEMB     90       POPC     H4X      HAL2     0.900000E-01   1.00800           0
     11995 MEMB     90       POPC     H4Y      HAL2     0.900000E-01   1.00800           0
     11996 MEMB     90       POPC     C35      CTL2    -0.180000       12.0110           0
     11997 MEMB     90       POPC     H5X      HAL2     0.900000E-01   1.00800           0
     11998 MEMB     90       POPC     H5Y      HAL2     0.900000E-01   1.00800           0
     11999 MEMB     90       POPC     C36      CTL2    -0.180000       12.0110           0
     12000 MEMB     90       POPC     H6X      HAL2     0.900000E-01   1.00800           0
     12001 MEMB     90       POPC     H6Y      HAL2     0.900000E-01   1.00800           0
     12002 MEMB     90       POPC     C37      CTL2    -0.180000       12.0110           0
     12003 MEMB     90       POPC     H7X      HAL2     0.900000E-01   1.00800           0
     12004 MEMB     90       POPC     H7Y      HAL2     0.900000E-01   1.00800           0
     12005 MEMB     90       POPC     C38      CTL2    -0.180000       12.0110           0
     12006 MEMB     90       POPC     H8X      HAL2     0.900000E-01   1.00800           0
     12007 MEMB     90       POPC     H8Y      HAL2     0.900000E-01   1.00800           0
     12008 MEMB     90       POPC     C39      CTL2    -0.180000       12.0110           0
     12009 MEMB     90       POPC     H9X      HAL2     0.900000E-01   1.00800           0
     12010 MEMB     90       POPC     H9Y      HAL2     0.900000E-01   1.00800           0
     12011 MEMB     90       POPC     C310     CTL2    -0.180000       12.0110           0
     12012 MEMB     90       POPC     H10X     HAL2     0.900000E-01   1.00800           0
     12013 MEMB     90       POPC     H10Y     HAL2     0.900000E-01   1.00800           0
     12014 MEMB     90       POPC     C311     CTL2    -0.180000       12.0110           0
     12015 MEMB     90       POPC     H11X     HAL2     0.900000E-01   1.00800           0
     12016 MEMB     90       POPC     H11Y     HAL2     0.900000E-01   1.00800           0
     12017 MEMB     90       POPC     C312     CTL2    -0.180000       12.0110           0
     12018 MEMB     90       POPC     H12X     HAL2     0.900000E-01   1.00800           0
     12019 MEMB     90       POPC     H12Y     HAL2     0.900000E-01   1.00800           0
     12020 MEMB     90       POPC     C313     CTL2    -0.180000       12.0110           0
     12021 MEMB     90       POPC     H13X     HAL2     0.900000E-01   1.00800           0
     12022 MEMB     90       POPC     H13Y     HAL2     0.900000E-01   1.00800           0
     12023 MEMB     90       POPC     C314     CTL2    -0.180000       12.0110           0
     12024 MEMB     90       POPC     H14X     HAL2     0.900000E-01   1.00800           0
     12025 MEMB     90       POPC     H14Y     HAL2     0.900000E-01   1.00800           0
     12026 MEMB     90       POPC     C315     CTL2    -0.180000       12.0110           0
     12027 MEMB     90       POPC     H15X     HAL2     0.900000E-01   1.00800           0
     12028 MEMB     90       POPC     H15Y     HAL2     0.900000E-01   1.00800           0
     12029 MEMB     90       POPC     C316     CTL3    -0.270000       12.0110           0
     12030 MEMB     90       POPC     H16X     HAL3     0.900000E-01   1.00800           0
     12031 MEMB     90       POPC     H16Y     HAL3     0.900000E-01   1.00800           0
     12032 MEMB     90       POPC     H16Z     HAL3     0.900000E-01   1.00800           0
     12033 MEMB     91       POPC     N        NTL     -0.600000       14.0070           0
     12034 MEMB     91       POPC     C12      CTL2    -0.100000       12.0110           0
     12035 MEMB     91       POPC     H12A     HL       0.250000       1.00800           0
     12036 MEMB     91       POPC     H12B     HL       0.250000       1.00800           0
     12037 MEMB     91       POPC     C13      CTL5    -0.350000       12.0110           0
     12038 MEMB     91       POPC     H13A     HL       0.250000       1.00800           0
     12039 MEMB     91       POPC     H13B     HL       0.250000       1.00800           0
     12040 MEMB     91       POPC     H13C     HL       0.250000       1.00800           0
     12041 MEMB     91       POPC     C14      CTL5    -0.350000       12.0110           0
     12042 MEMB     91       POPC     H14A     HL       0.250000       1.00800           0
     12043 MEMB     91       POPC     H14B     HL       0.250000       1.00800           0
     12044 MEMB     91       POPC     H14C     HL       0.250000       1.00800           0
     12045 MEMB     91       POPC     C15      CTL5    -0.350000       12.0110           0
     12046 MEMB     91       POPC     H15A     HL       0.250000       1.00800           0
     12047 MEMB     91       POPC     H15B     HL       0.250000       1.00800           0
     12048 MEMB     91       POPC     H15C     HL       0.250000       1.00800           0
     12049 MEMB     91       POPC     C11      CTL2    -0.800000E-01   12.0110           0
     12050 MEMB     91       POPC     H11A     HAL2     0.900000E-01   1.00800           0
     12051 MEMB     91       POPC     H11B     HAL2     0.900000E-01   1.00800           0
     12052 MEMB     91       POPC     P        PL       1.500000       30.9740           0
     12053 MEMB     91       POPC     O13      O2L     -0.780000       15.9994           0
     12054 MEMB     91       POPC     O14      O2L     -0.780000       15.9994           0
     12055 MEMB     91       POPC     O12      OSLP    -0.570000       15.9994           0
     12056 MEMB     91       POPC     O11      OSLP    -0.570000       15.9994           0
     12057 MEMB     91       POPC     C1       CTL2    -0.800000E-01   12.0110           0
     12058 MEMB     91       POPC     HA       HAL2     0.900000E-01   1.00800           0
     12059 MEMB     91       POPC     HB       HAL2     0.900000E-01   1.00800           0
     12060 MEMB     91       POPC     C2       CTL1     0.170000       12.0110           0
     12061 MEMB     91       POPC     HS       HAL1     0.900000E-01   1.00800           0
     12062 MEMB     91       POPC     O21      OSL     -0.490000       15.9994           0
     12063 MEMB     91       POPC     C21      CL       0.900000       12.0110           0
     12064 MEMB     91       POPC     O22      OBL     -0.630000       15.9994           0
     12065 MEMB     91       POPC     C22      CTL2    -0.220000       12.0110           0
     12066 MEMB     91       POPC     H2R      HAL2     0.900000E-01   1.00800           0
     12067 MEMB     91       POPC     H2S      HAL2     0.900000E-01   1.00800           0
     12068 MEMB     91       POPC     C3       CTL2     0.800000E-01   12.0110           0
     12069 MEMB     91       POPC     HX       HAL2     0.900000E-01   1.00800           0
     12070 MEMB     91       POPC     HY       HAL2     0.900000E-01   1.00800           0
     12071 MEMB     91       POPC     O31      OSL     -0.490000       15.9994           0
     12072 MEMB     91       POPC     C31      CL       0.900000       12.0110           0
     12073 MEMB     91       POPC     O32      OBL     -0.630000       15.9994           0
     12074 MEMB     91       POPC     C32      CTL2    -0.220000       12.0110           0
     12075 MEMB     91       POPC     H2X      HAL2     0.900000E-01   1.00800           0
     12076 MEMB     91       POPC     H2Y      HAL2     0.900000E-01   1.00800           0
     12077 MEMB     91       POPC     C23      CTL2    -0.180000       12.0110           0
     12078 MEMB     91       POPC     H3R      HAL2     0.900000E-01   1.00800           0
     12079 MEMB     91       POPC     H3S      HAL2     0.900000E-01   1.00800           0
     12080 MEMB     91       POPC     C24      CTL2    -0.180000       12.0110           0
     12081 MEMB     91       POPC     H4R      HAL2     0.900000E-01   1.00800           0
     12082 MEMB     91       POPC     H4S      HAL2     0.900000E-01   1.00800           0
     12083 MEMB     91       POPC     C25      CTL2    -0.180000       12.0110           0
     12084 MEMB     91       POPC     H5R      HAL2     0.900000E-01   1.00800           0
     12085 MEMB     91       POPC     H5S      HAL2     0.900000E-01   1.00800           0
     12086 MEMB     91       POPC     C26      CTL2    -0.180000       12.0110           0
     12087 MEMB     91       POPC     H6R      HAL2     0.900000E-01   1.00800           0
     12088 MEMB     91       POPC     H6S      HAL2     0.900000E-01   1.00800           0
     12089 MEMB     91       POPC     C27      CTL2    -0.180000       12.0110           0
     12090 MEMB     91       POPC     H7R      HAL2     0.900000E-01   1.00800           0
     12091 MEMB     91       POPC     H7S      HAL2     0.900000E-01   1.00800           0
     12092 MEMB     91       POPC     C28      CTL2    -0.180000       12.0110           0
     12093 MEMB     91       POPC     H8R      HAL2     0.900000E-01   1.00800           0
     12094 MEMB     91       POPC     H8S      HAL2     0.900000E-01   1.00800           0
     12095 MEMB     91       POPC     C29      CEL1    -0.150000       12.0110           0
     12096 MEMB     91       POPC     H91      HEL1     0.150000       1.00800           0
     12097 MEMB     91       POPC     C210     CEL1    -0.150000       12.0110           0
     12098 MEMB     91       POPC     H101     HEL1     0.150000       1.00800           0
     12099 MEMB     91       POPC     C211     CTL2    -0.180000       12.0110           0
     12100 MEMB     91       POPC     H11R     HAL2     0.900000E-01   1.00800           0
     12101 MEMB     91       POPC     H11S     HAL2     0.900000E-01   1.00800           0
     12102 MEMB     91       POPC     C212     CTL2    -0.180000       12.0110           0
     12103 MEMB     91       POPC     H12R     HAL2     0.900000E-01   1.00800           0
     12104 MEMB     91       POPC     H12S     HAL2     0.900000E-01   1.00800           0
     12105 MEMB     91       POPC     C213     CTL2    -0.180000       12.0110           0
     12106 MEMB     91       POPC     H13R     HAL2     0.900000E-01   1.00800           0
     12107 MEMB     91       POPC     H13S     HAL2     0.900000E-01   1.00800           0
     12108 MEMB     91       POPC     C214     CTL2    -0.180000       12.0110           0
     12109 MEMB     91       POPC     H14R     HAL2     0.900000E-01   1.00800           0
     12110 MEMB     91       POPC     H14S     HAL2     0.900000E-01   1.00800           0
     12111 MEMB     91       POPC     C215     CTL2    -0.180000       12.0110           0
     12112 MEMB     91       POPC     H15R     HAL2     0.900000E-01   1.00800           0
     12113 MEMB     91       POPC     H15S     HAL2     0.900000E-01   1.00800           0
     12114 MEMB     91       POPC     C216     CTL2    -0.180000       12.0110           0
     12115 MEMB     91       POPC     H16R     HAL2     0.900000E-01   1.00800           0
     12116 MEMB     91       POPC     H16S     HAL2     0.900000E-01   1.00800           0
     12117 MEMB     91       POPC     C217     CTL2    -0.180000       12.0110           0
     12118 MEMB     91       POPC     H17R     HAL2     0.900000E-01   1.00800           0
     12119 MEMB     91       POPC     H17S     HAL2     0.900000E-01   1.00800           0
     12120 MEMB     91       POPC     C218     CTL3    -0.270000       12.0110           0
     12121 MEMB     91       POPC     H18R     HAL3     0.900000E-01   1.00800           0
     12122 MEMB     91       POPC     H18S     HAL3     0.900000E-01   1.00800           0
     12123 MEMB     91       POPC     H18T     HAL3     0.900000E-01   1.00800           0
     12124 MEMB     91       POPC     C33      CTL2    -0.180000       12.0110           0
     12125 MEMB     91       POPC     H3X      HAL2     0.900000E-01   1.00800           0
     12126 MEMB     91       POPC     H3Y      HAL2     0.900000E-01   1.00800           0
     12127 MEMB     91       POPC     C34      CTL2    -0.180000       12.0110           0
     12128 MEMB     91       POPC     H4X      HAL2     0.900000E-01   1.00800           0
     12129 MEMB     91       POPC     H4Y      HAL2     0.900000E-01   1.00800           0
     12130 MEMB     91       POPC     C35      CTL2    -0.180000       12.0110           0
     12131 MEMB     91       POPC     H5X      HAL2     0.900000E-01   1.00800           0
     12132 MEMB     91       POPC     H5Y      HAL2     0.900000E-01   1.00800           0
     12133 MEMB     91       POPC     C36      CTL2    -0.180000       12.0110           0
     12134 MEMB     91       POPC     H6X      HAL2     0.900000E-01   1.00800           0
     12135 MEMB     91       POPC     H6Y      HAL2     0.900000E-01   1.00800           0
     12136 MEMB     91       POPC     C37      CTL2    -0.180000       12.0110           0
     12137 MEMB     91       POPC     H7X      HAL2     0.900000E-01   1.00800           0
     12138 MEMB     91       POPC     H7Y      HAL2     0.900000E-01   1.00800           0
     12139 MEMB     91       POPC     C38      CTL2    -0.180000       12.0110           0
     12140 MEMB     91       POPC     H8X      HAL2     0.900000E-01   1.00800           0
     12141 MEMB     91       POPC     H8Y      HAL2     0.900000E-01   1.00800           0
     12142 MEMB     91       POPC     C39      CTL2    -0.180000       12.0110           0
     12143 MEMB     91       POPC     H9X      HAL2     0.900000E-01   1.00800           0
     12144 MEMB     91       POPC     H9Y      HAL2     0.900000E-01   1.00800           0
     12145 MEMB     91       POPC     C310     CTL2    -0.180000       12.0110           0
     12146 MEMB     91       POPC     H10X     HAL2     0.900000E-01   1.00800           0
     12147 MEMB     91       POPC     H10Y     HAL2     0.900000E-01   1.00800           0
     12148 MEMB     91       POPC     C311     CTL2    -0.180000       12.0110           0
     12149 MEMB     91       POPC     H11X     HAL2     0.900000E-01   1.00800           0
     12150 MEMB     91       POPC     H11Y     HAL2     0.900000E-01   1.00800           0
     12151 MEMB     91       POPC     C312     CTL2    -0.180000       12.0110           0
     12152 MEMB     91       POPC     H12X     HAL2     0.900000E-01   1.00800           0
     12153 MEMB     91       POPC     H12Y     HAL2     0.900000E-01   1.00800           0
     12154 MEMB     91       POPC     C313     CTL2    -0.180000       12.0110           0
     12155 MEMB     91       POPC     H13X     HAL2     0.900000E-01   1.00800           0
     12156 MEMB     91       POPC     H13Y     HAL2     0.900000E-01   1.00800           0
     12157 MEMB     91       POPC     C314     CTL2    -0.180000       12.0110           0
     12158 MEMB     91       POPC     H14X     HAL2     0.900000E-01   1.00800           0
     12159 MEMB     91       POPC     H14Y     HAL2     0.900000E-01   1.00800           0
     12160 MEMB     91       POPC     C315     CTL2    -0.180000       12.0110           0
     12161 MEMB     91       POPC     H15X     HAL2     0.900000E-01   1.00800           0
     12162 MEMB     91       POPC     H15Y     HAL2     0.900000E-01   1.00800           0
     12163 MEMB     91       POPC     C316     CTL3    -0.270000       12.0110           0
     12164 MEMB     91       POPC     H16X     HAL3     0.900000E-01   1.00800           0
     12165 MEMB     91       POPC     H16Y     HAL3     0.900000E-01   1.00800           0
     12166 MEMB     91       POPC     H16Z     HAL3     0.900000E-01   1.00800           0
     12167 MEMB     92       POPC     N        NTL     -0.600000       14.0070           0
     12168 MEMB     92       POPC     C12      CTL2    -0.100000       12.0110           0
     12169 MEMB     92       POPC     H12A     HL       0.250000       1.00800           0
     12170 MEMB     92       POPC     H12B     HL       0.250000       1.00800           0
     12171 MEMB     92       POPC     C13      CTL5    -0.350000       12.0110           0
     12172 MEMB     92       POPC     H13A     HL       0.250000       1.00800           0
     12173 MEMB     92       POPC     H13B     HL       0.250000       1.00800           0
     12174 MEMB     92       POPC     H13C     HL       0.250000       1.00800           0
     12175 MEMB     92       POPC     C14      CTL5    -0.350000       12.0110           0
     12176 MEMB     92       POPC     H14A     HL       0.250000       1.00800           0
     12177 MEMB     92       POPC     H14B     HL       0.250000       1.00800           0
     12178 MEMB     92       POPC     H14C     HL       0.250000       1.00800           0
     12179 MEMB     92       POPC     C15      CTL5    -0.350000       12.0110           0
     12180 MEMB     92       POPC     H15A     HL       0.250000       1.00800           0
     12181 MEMB     92       POPC     H15B     HL       0.250000       1.00800           0
     12182 MEMB     92       POPC     H15C     HL       0.250000       1.00800           0
     12183 MEMB     92       POPC     C11      CTL2    -0.800000E-01   12.0110           0
     12184 MEMB     92       POPC     H11A     HAL2     0.900000E-01   1.00800           0
     12185 MEMB     92       POPC     H11B     HAL2     0.900000E-01   1.00800           0
     12186 MEMB     92       POPC     P        PL       1.500000       30.9740           0
     12187 MEMB     92       POPC     O13      O2L     -0.780000       15.9994           0
     12188 MEMB     92       POPC     O14      O2L     -0.780000       15.9994           0
     12189 MEMB     92       POPC     O12      OSLP    -0.570000       15.9994           0
     12190 MEMB     92       POPC     O11      OSLP    -0.570000       15.9994           0
     12191 MEMB     92       POPC     C1       CTL2    -0.800000E-01   12.0110           0
     12192 MEMB     92       POPC     HA       HAL2     0.900000E-01   1.00800           0
     12193 MEMB     92       POPC     HB       HAL2     0.900000E-01   1.00800           0
     12194 MEMB     92       POPC     C2       CTL1     0.170000       12.0110           0
     12195 MEMB     92       POPC     HS       HAL1     0.900000E-01   1.00800           0
     12196 MEMB     92       POPC     O21      OSL     -0.490000       15.9994           0
     12197 MEMB     92       POPC     C21      CL       0.900000       12.0110           0
     12198 MEMB     92       POPC     O22      OBL     -0.630000       15.9994           0
     12199 MEMB     92       POPC     C22      CTL2    -0.220000       12.0110           0
     12200 MEMB     92       POPC     H2R      HAL2     0.900000E-01   1.00800           0
     12201 MEMB     92       POPC     H2S      HAL2     0.900000E-01   1.00800           0
     12202 MEMB     92       POPC     C3       CTL2     0.800000E-01   12.0110           0
     12203 MEMB     92       POPC     HX       HAL2     0.900000E-01   1.00800           0
     12204 MEMB     92       POPC     HY       HAL2     0.900000E-01   1.00800           0
     12205 MEMB     92       POPC     O31      OSL     -0.490000       15.9994           0
     12206 MEMB     92       POPC     C31      CL       0.900000       12.0110           0
     12207 MEMB     92       POPC     O32      OBL     -0.630000       15.9994           0
     12208 MEMB     92       POPC     C32      CTL2    -0.220000       12.0110           0
     12209 MEMB     92       POPC     H2X      HAL2     0.900000E-01   1.00800           0
     12210 MEMB     92       POPC     H2Y      HAL2     0.900000E-01   1.00800           0
     12211 MEMB     92       POPC     C23      CTL2    -0.180000       12.0110           0
     12212 MEMB     92       POPC     H3R      HAL2     0.900000E-01   1.00800           0
     12213 MEMB     92       POPC     H3S      HAL2     0.900000E-01   1.00800           0
     12214 MEMB     92       POPC     C24      CTL2    -0.180000       12.0110           0
     12215 MEMB     92       POPC     H4R      HAL2     0.900000E-01   1.00800           0
     12216 MEMB     92       POPC     H4S      HAL2     0.900000E-01   1.00800           0
     12217 MEMB     92       POPC     C25      CTL2    -0.180000       12.0110           0
     12218 MEMB     92       POPC     H5R      HAL2     0.900000E-01   1.00800           0
     12219 MEMB     92       POPC     H5S      HAL2     0.900000E-01   1.00800           0
     12220 MEMB     92       POPC     C26      CTL2    -0.180000       12.0110           0
     12221 MEMB     92       POPC     H6R      HAL2     0.900000E-01   1.00800           0
     12222 MEMB     92       POPC     H6S      HAL2     0.900000E-01   1.00800           0
     12223 MEMB     92       POPC     C27      CTL2    -0.180000       12.0110           0
     12224 MEMB     92       POPC     H7R      HAL2     0.900000E-01   1.00800           0
     12225 MEMB     92       POPC     H7S      HAL2     0.900000E-01   1.00800           0
     12226 MEMB     92       POPC     C28      CTL2    -0.180000       12.0110           0
     12227 MEMB     92       POPC     H8R      HAL2     0.900000E-01   1.00800           0
     12228 MEMB     92       POPC     H8S      HAL2     0.900000E-01   1.00800           0
     12229 MEMB     92       POPC     C29      CEL1    -0.150000       12.0110           0
     12230 MEMB     92       POPC     H91      HEL1     0.150000       1.00800           0
     12231 MEMB     92       POPC     C210     CEL1    -0.150000       12.0110           0
     12232 MEMB     92       POPC     H101     HEL1     0.150000       1.00800           0
     12233 MEMB     92       POPC     C211     CTL2    -0.180000       12.0110           0
     12234 MEMB     92       POPC     H11R     HAL2     0.900000E-01   1.00800           0
     12235 MEMB     92       POPC     H11S     HAL2     0.900000E-01   1.00800           0
     12236 MEMB     92       POPC     C212     CTL2    -0.180000       12.0110           0
     12237 MEMB     92       POPC     H12R     HAL2     0.900000E-01   1.00800           0
     12238 MEMB     92       POPC     H12S     HAL2     0.900000E-01   1.00800           0
     12239 MEMB     92       POPC     C213     CTL2    -0.180000       12.0110           0
     12240 MEMB     92       POPC     H13R     HAL2     0.900000E-01   1.00800           0
     12241 MEMB     92       POPC     H13S     HAL2     0.900000E-01   1.00800           0
     12242 MEMB     92       POPC     C214     CTL2    -0.180000       12.0110           0
     12243 MEMB     92       POPC     H14R     HAL2     0.900000E-01   1.00800           0
     12244 MEMB     92       POPC     H14S     HAL2     0.900000E-01   1.00800           0
     12245 MEMB     92       POPC     C215     CTL2    -0.180000       12.0110           0
     12246 MEMB     92       POPC     H15R     HAL2     0.900000E-01   1.00800           0
     12247 MEMB     92       POPC     H15S     HAL2     0.900000E-01   1.00800           0
     12248 MEMB     92       POPC     C216     CTL2    -0.180000       12.0110           0
     12249 MEMB     92       POPC     H16R     HAL2     0.900000E-01   1.00800           0
     12250 MEMB     92       POPC     H16S     HAL2     0.900000E-01   1.00800           0
     12251 MEMB     92       POPC     C217     CTL2    -0.180000       12.0110           0
     12252 MEMB     92       POPC     H17R     HAL2     0.900000E-01   1.00800           0
     12253 MEMB     92       POPC     H17S     HAL2     0.900000E-01   1.00800           0
     12254 MEMB     92       POPC     C218     CTL3    -0.270000       12.0110           0
     12255 MEMB     92       POPC     H18R     HAL3     0.900000E-01   1.00800           0
     12256 MEMB     92       POPC     H18S     HAL3     0.900000E-01   1.00800           0
     12257 MEMB     92       POPC     H18T     HAL3     0.900000E-01   1.00800           0
     12258 MEMB     92       POPC     C33      CTL2    -0.180000       12.0110           0
     12259 MEMB     92       POPC     H3X      HAL2     0.900000E-01   1.00800           0
     12260 MEMB     92       POPC     H3Y      HAL2     0.900000E-01   1.00800           0
     12261 MEMB     92       POPC     C34      CTL2    -0.180000       12.0110           0
     12262 MEMB     92       POPC     H4X      HAL2     0.900000E-01   1.00800           0
     12263 MEMB     92       POPC     H4Y      HAL2     0.900000E-01   1.00800           0
     12264 MEMB     92       POPC     C35      CTL2    -0.180000       12.0110           0
     12265 MEMB     92       POPC     H5X      HAL2     0.900000E-01   1.00800           0
     12266 MEMB     92       POPC     H5Y      HAL2     0.900000E-01   1.00800           0
     12267 MEMB     92       POPC     C36      CTL2    -0.180000       12.0110           0
     12268 MEMB     92       POPC     H6X      HAL2     0.900000E-01   1.00800           0
     12269 MEMB     92       POPC     H6Y      HAL2     0.900000E-01   1.00800           0
     12270 MEMB     92       POPC     C37      CTL2    -0.180000       12.0110           0
     12271 MEMB     92       POPC     H7X      HAL2     0.900000E-01   1.00800           0
     12272 MEMB     92       POPC     H7Y      HAL2     0.900000E-01   1.00800           0
     12273 MEMB     92       POPC     C38      CTL2    -0.180000       12.0110           0
     12274 MEMB     92       POPC     H8X      HAL2     0.900000E-01   1.00800           0
     12275 MEMB     92       POPC     H8Y      HAL2     0.900000E-01   1.00800           0
     12276 MEMB     92       POPC     C39      CTL2    -0.180000       12.0110           0
     12277 MEMB     92       POPC     H9X      HAL2     0.900000E-01   1.00800           0
     12278 MEMB     92       POPC     H9Y      HAL2     0.900000E-01   1.00800           0
     12279 MEMB     92       POPC     C310     CTL2    -0.180000       12.0110           0
     12280 MEMB     92       POPC     H10X     HAL2     0.900000E-01   1.00800           0
     12281 MEMB     92       POPC     H10Y     HAL2     0.900000E-01   1.00800           0
     12282 MEMB     92       POPC     C311     CTL2    -0.180000       12.0110           0
     12283 MEMB     92       POPC     H11X     HAL2     0.900000E-01   1.00800           0
     12284 MEMB     92       POPC     H11Y     HAL2     0.900000E-01   1.00800           0
     12285 MEMB     92       POPC     C312     CTL2    -0.180000       12.0110           0
     12286 MEMB     92       POPC     H12X     HAL2     0.900000E-01   1.00800           0
     12287 MEMB     92       POPC     H12Y     HAL2     0.900000E-01   1.00800           0
     12288 MEMB     92       POPC     C313     CTL2    -0.180000       12.0110           0
     12289 MEMB     92       POPC     H13X     HAL2     0.900000E-01   1.00800           0
     12290 MEMB     92       POPC     H13Y     HAL2     0.900000E-01   1.00800           0
     12291 MEMB     92       POPC     C314     CTL2    -0.180000       12.0110           0
     12292 MEMB     92       POPC     H14X     HAL2     0.900000E-01   1.00800           0
     12293 MEMB     92       POPC     H14Y     HAL2     0.900000E-01   1.00800           0
     12294 MEMB     92       POPC     C315     CTL2    -0.180000       12.0110           0
     12295 MEMB     92       POPC     H15X     HAL2     0.900000E-01   1.00800           0
     12296 MEMB     92       POPC     H15Y     HAL2     0.900000E-01   1.00800           0
     12297 MEMB     92       POPC     C316     CTL3    -0.270000       12.0110           0
     12298 MEMB     92       POPC     H16X     HAL3     0.900000E-01   1.00800           0
     12299 MEMB     92       POPC     H16Y     HAL3     0.900000E-01   1.00800           0
     12300 MEMB     92       POPC     H16Z     HAL3     0.900000E-01   1.00800           0
     12301 MEMB     93       POPC     N        NTL     -0.600000       14.0070           0
     12302 MEMB     93       POPC     C12      CTL2    -0.100000       12.0110           0
     12303 MEMB     93       POPC     H12A     HL       0.250000       1.00800           0
     12304 MEMB     93       POPC     H12B     HL       0.250000       1.00800           0
     12305 MEMB     93       POPC     C13      CTL5    -0.350000       12.0110           0
     12306 MEMB     93       POPC     H13A     HL       0.250000       1.00800           0
     12307 MEMB     93       POPC     H13B     HL       0.250000       1.00800           0
     12308 MEMB     93       POPC     H13C     HL       0.250000       1.00800           0
     12309 MEMB     93       POPC     C14      CTL5    -0.350000       12.0110           0
     12310 MEMB     93       POPC     H14A     HL       0.250000       1.00800           0
     12311 MEMB     93       POPC     H14B     HL       0.250000       1.00800           0
     12312 MEMB     93       POPC     H14C     HL       0.250000       1.00800           0
     12313 MEMB     93       POPC     C15      CTL5    -0.350000       12.0110           0
     12314 MEMB     93       POPC     H15A     HL       0.250000       1.00800           0
     12315 MEMB     93       POPC     H15B     HL       0.250000       1.00800           0
     12316 MEMB     93       POPC     H15C     HL       0.250000       1.00800           0
     12317 MEMB     93       POPC     C11      CTL2    -0.800000E-01   12.0110           0
     12318 MEMB     93       POPC     H11A     HAL2     0.900000E-01   1.00800           0
     12319 MEMB     93       POPC     H11B     HAL2     0.900000E-01   1.00800           0
     12320 MEMB     93       POPC     P        PL       1.500000       30.9740           0
     12321 MEMB     93       POPC     O13      O2L     -0.780000       15.9994           0
     12322 MEMB     93       POPC     O14      O2L     -0.780000       15.9994           0
     12323 MEMB     93       POPC     O12      OSLP    -0.570000       15.9994           0
     12324 MEMB     93       POPC     O11      OSLP    -0.570000       15.9994           0
     12325 MEMB     93       POPC     C1       CTL2    -0.800000E-01   12.0110           0
     12326 MEMB     93       POPC     HA       HAL2     0.900000E-01   1.00800           0
     12327 MEMB     93       POPC     HB       HAL2     0.900000E-01   1.00800           0
     12328 MEMB     93       POPC     C2       CTL1     0.170000       12.0110           0
     12329 MEMB     93       POPC     HS       HAL1     0.900000E-01   1.00800           0
     12330 MEMB     93       POPC     O21      OSL     -0.490000       15.9994           0
     12331 MEMB     93       POPC     C21      CL       0.900000       12.0110           0
     12332 MEMB     93       POPC     O22      OBL     -0.630000       15.9994           0
     12333 MEMB     93       POPC     C22      CTL2    -0.220000       12.0110           0
     12334 MEMB     93       POPC     H2R      HAL2     0.900000E-01   1.00800           0
     12335 MEMB     93       POPC     H2S      HAL2     0.900000E-01   1.00800           0
     12336 MEMB     93       POPC     C3       CTL2     0.800000E-01   12.0110           0
     12337 MEMB     93       POPC     HX       HAL2     0.900000E-01   1.00800           0
     12338 MEMB     93       POPC     HY       HAL2     0.900000E-01   1.00800           0
     12339 MEMB     93       POPC     O31      OSL     -0.490000       15.9994           0
     12340 MEMB     93       POPC     C31      CL       0.900000       12.0110           0
     12341 MEMB     93       POPC     O32      OBL     -0.630000       15.9994           0
     12342 MEMB     93       POPC     C32      CTL2    -0.220000       12.0110           0
     12343 MEMB     93       POPC     H2X      HAL2     0.900000E-01   1.00800           0
     12344 MEMB     93       POPC     H2Y      HAL2     0.900000E-01   1.00800           0
     12345 MEMB     93       POPC     C23      CTL2    -0.180000       12.0110           0
     12346 MEMB     93       POPC     H3R      HAL2     0.900000E-01   1.00800           0
     12347 MEMB     93       POPC     H3S      HAL2     0.900000E-01   1.00800           0
     12348 MEMB     93       POPC     C24      CTL2    -0.180000       12.0110           0
     12349 MEMB     93       POPC     H4R      HAL2     0.900000E-01   1.00800           0
     12350 MEMB     93       POPC     H4S      HAL2     0.900000E-01   1.00800           0
     12351 MEMB     93       POPC     C25      CTL2    -0.180000       12.0110           0
     12352 MEMB     93       POPC     H5R      HAL2     0.900000E-01   1.00800           0
     12353 MEMB     93       POPC     H5S      HAL2     0.900000E-01   1.00800           0
     12354 MEMB     93       POPC     C26      CTL2    -0.180000       12.0110           0
     12355 MEMB     93       POPC     H6R      HAL2     0.900000E-01   1.00800           0
     12356 MEMB     93       POPC     H6S      HAL2     0.900000E-01   1.00800           0
     12357 MEMB     93       POPC     C27      CTL2    -0.180000       12.0110           0
     12358 MEMB     93       POPC     H7R      HAL2     0.900000E-01   1.00800           0
     12359 MEMB     93       POPC     H7S      HAL2     0.900000E-01   1.00800           0
     12360 MEMB     93       POPC     C28      CTL2    -0.180000       12.0110           0
     12361 MEMB     93       POPC     H8R      HAL2     0.900000E-01   1.00800           0
     12362 MEMB     93       POPC     H8S      HAL2     0.900000E-01   1.00800           0
     12363 MEMB     93       POPC     C29      CEL1    -0.150000       12.0110           0
     12364 MEMB     93       POPC     H91      HEL1     0.150000       1.00800           0
     12365 MEMB     93       POPC     C210     CEL1    -0.150000       12.0110           0
     12366 MEMB     93       POPC     H101     HEL1     0.150000       1.00800           0
     12367 MEMB     93       POPC     C211     CTL2    -0.180000       12.0110           0
     12368 MEMB     93       POPC     H11R     HAL2     0.900000E-01   1.00800           0
     12369 MEMB     93       POPC     H11S     HAL2     0.900000E-01   1.00800           0
     12370 MEMB     93       POPC     C212     CTL2    -0.180000       12.0110           0
     12371 MEMB     93       POPC     H12R     HAL2     0.900000E-01   1.00800           0
     12372 MEMB     93       POPC     H12S     HAL2     0.900000E-01   1.00800           0
     12373 MEMB     93       POPC     C213     CTL2    -0.180000       12.0110           0
     12374 MEMB     93       POPC     H13R     HAL2     0.900000E-01   1.00800           0
     12375 MEMB     93       POPC     H13S     HAL2     0.900000E-01   1.00800           0
     12376 MEMB     93       POPC     C214     CTL2    -0.180000       12.0110           0
     12377 MEMB     93       POPC     H14R     HAL2     0.900000E-01   1.00800           0
     12378 MEMB     93       POPC     H14S     HAL2     0.900000E-01   1.00800           0
     12379 MEMB     93       POPC     C215     CTL2    -0.180000       12.0110           0
     12380 MEMB     93       POPC     H15R     HAL2     0.900000E-01   1.00800           0
     12381 MEMB     93       POPC     H15S     HAL2     0.900000E-01   1.00800           0
     12382 MEMB     93       POPC     C216     CTL2    -0.180000       12.0110           0
     12383 MEMB     93       POPC     H16R     HAL2     0.900000E-01   1.00800           0
     12384 MEMB     93       POPC     H16S     HAL2     0.900000E-01   1.00800           0
     12385 MEMB     93       POPC     C217     CTL2    -0.180000       12.0110           0
     12386 MEMB     93       POPC     H17R     HAL2     0.900000E-01   1.00800           0
     12387 MEMB     93       POPC     H17S     HAL2     0.900000E-01   1.00800           0
     12388 MEMB     93       POPC     C218     CTL3    -0.270000       12.0110           0
     12389 MEMB     93       POPC     H18R     HAL3     0.900000E-01   1.00800           0
     12390 MEMB     93       POPC     H18S     HAL3     0.900000E-01   1.00800           0
     12391 MEMB     93       POPC     H18T     HAL3     0.900000E-01   1.00800           0
     12392 MEMB     93       POPC     C33      CTL2    -0.180000       12.0110           0
     12393 MEMB     93       POPC     H3X      HAL2     0.900000E-01   1.00800           0
     12394 MEMB     93       POPC     H3Y      HAL2     0.900000E-01   1.00800           0
     12395 MEMB     93       POPC     C34      CTL2    -0.180000       12.0110           0
     12396 MEMB     93       POPC     H4X      HAL2     0.900000E-01   1.00800           0
     12397 MEMB     93       POPC     H4Y      HAL2     0.900000E-01   1.00800           0
     12398 MEMB     93       POPC     C35      CTL2    -0.180000       12.0110           0
     12399 MEMB     93       POPC     H5X      HAL2     0.900000E-01   1.00800           0
     12400 MEMB     93       POPC     H5Y      HAL2     0.900000E-01   1.00800           0
     12401 MEMB     93       POPC     C36      CTL2    -0.180000       12.0110           0
     12402 MEMB     93       POPC     H6X      HAL2     0.900000E-01   1.00800           0
     12403 MEMB     93       POPC     H6Y      HAL2     0.900000E-01   1.00800           0
     12404 MEMB     93       POPC     C37      CTL2    -0.180000       12.0110           0
     12405 MEMB     93       POPC     H7X      HAL2     0.900000E-01   1.00800           0
     12406 MEMB     93       POPC     H7Y      HAL2     0.900000E-01   1.00800           0
     12407 MEMB     93       POPC     C38      CTL2    -0.180000       12.0110           0
     12408 MEMB     93       POPC     H8X      HAL2     0.900000E-01   1.00800           0
     12409 MEMB     93       POPC     H8Y      HAL2     0.900000E-01   1.00800           0
     12410 MEMB     93       POPC     C39      CTL2    -0.180000       12.0110           0
     12411 MEMB     93       POPC     H9X      HAL2     0.900000E-01   1.00800           0
     12412 MEMB     93       POPC     H9Y      HAL2     0.900000E-01   1.00800           0
     12413 MEMB     93       POPC     C310     CTL2    -0.180000       12.0110           0
     12414 MEMB     93       POPC     H10X     HAL2     0.900000E-01   1.00800           0
     12415 MEMB     93       POPC     H10Y     HAL2     0.900000E-01   1.00800           0
     12416 MEMB     93       POPC     C311     CTL2    -0.180000       12.0110           0
     12417 MEMB     93       POPC     H11X     HAL2     0.900000E-01   1.00800           0
     12418 MEMB     93       POPC     H11Y     HAL2     0.900000E-01   1.00800           0
     12419 MEMB     93       POPC     C312     CTL2    -0.180000       12.0110           0
     12420 MEMB     93       POPC     H12X     HAL2     0.900000E-01   1.00800           0
     12421 MEMB     93       POPC     H12Y     HAL2     0.900000E-01   1.00800           0
     12422 MEMB     93       POPC     C313     CTL2    -0.180000       12.0110           0
     12423 MEMB     93       POPC     H13X     HAL2     0.900000E-01   1.00800           0
     12424 MEMB     93       POPC     H13Y     HAL2     0.900000E-01   1.00800           0
     12425 MEMB     93       POPC     C314     CTL2    -0.180000       12.0110           0
     12426 MEMB     93       POPC     H14X     HAL2     0.900000E-01   1.00800           0
     12427 MEMB     93       POPC     H14Y     HAL2     0.900000E-01   1.00800           0
     12428 MEMB     93       POPC     C315     CTL2    -0.180000       12.0110           0
     12429 MEMB     93       POPC     H15X     HAL2     0.900000E-01   1.00800           0
     12430 MEMB     93       POPC     H15Y     HAL2     0.900000E-01   1.00800           0
     12431 MEMB     93       POPC     C316     CTL3    -0.270000       12.0110           0
     12432 MEMB     93       POPC     H16X     HAL3     0.900000E-01   1.00800           0
     12433 MEMB     93       POPC     H16Y     HAL3     0.900000E-01   1.00800           0
     12434 MEMB     93       POPC     H16Z     HAL3     0.900000E-01   1.00800           0
     12435 MEMB     94       POPC     N        NTL     -0.600000       14.0070           0
     12436 MEMB     94       POPC     C12      CTL2    -0.100000       12.0110           0
     12437 MEMB     94       POPC     H12A     HL       0.250000       1.00800           0
     12438 MEMB     94       POPC     H12B     HL       0.250000       1.00800           0
     12439 MEMB     94       POPC     C13      CTL5    -0.350000       12.0110           0
     12440 MEMB     94       POPC     H13A     HL       0.250000       1.00800           0
     12441 MEMB     94       POPC     H13B     HL       0.250000       1.00800           0
     12442 MEMB     94       POPC     H13C     HL       0.250000       1.00800           0
     12443 MEMB     94       POPC     C14      CTL5    -0.350000       12.0110           0
     12444 MEMB     94       POPC     H14A     HL       0.250000       1.00800           0
     12445 MEMB     94       POPC     H14B     HL       0.250000       1.00800           0
     12446 MEMB     94       POPC     H14C     HL       0.250000       1.00800           0
     12447 MEMB     94       POPC     C15      CTL5    -0.350000       12.0110           0
     12448 MEMB     94       POPC     H15A     HL       0.250000       1.00800           0
     12449 MEMB     94       POPC     H15B     HL       0.250000       1.00800           0
     12450 MEMB     94       POPC     H15C     HL       0.250000       1.00800           0
     12451 MEMB     94       POPC     C11      CTL2    -0.800000E-01   12.0110           0
     12452 MEMB     94       POPC     H11A     HAL2     0.900000E-01   1.00800           0
     12453 MEMB     94       POPC     H11B     HAL2     0.900000E-01   1.00800           0
     12454 MEMB     94       POPC     P        PL       1.500000       30.9740           0
     12455 MEMB     94       POPC     O13      O2L     -0.780000       15.9994           0
     12456 MEMB     94       POPC     O14      O2L     -0.780000       15.9994           0
     12457 MEMB     94       POPC     O12      OSLP    -0.570000       15.9994           0
     12458 MEMB     94       POPC     O11      OSLP    -0.570000       15.9994           0
     12459 MEMB     94       POPC     C1       CTL2    -0.800000E-01   12.0110           0
     12460 MEMB     94       POPC     HA       HAL2     0.900000E-01   1.00800           0
     12461 MEMB     94       POPC     HB       HAL2     0.900000E-01   1.00800           0
     12462 MEMB     94       POPC     C2       CTL1     0.170000       12.0110           0
     12463 MEMB     94       POPC     HS       HAL1     0.900000E-01   1.00800           0
     12464 MEMB     94       POPC     O21      OSL     -0.490000       15.9994           0
     12465 MEMB     94       POPC     C21      CL       0.900000       12.0110           0
     12466 MEMB     94       POPC     O22      OBL     -0.630000       15.9994           0
     12467 MEMB     94       POPC     C22      CTL2    -0.220000       12.0110           0
     12468 MEMB     94       POPC     H2R      HAL2     0.900000E-01   1.00800           0
     12469 MEMB     94       POPC     H2S      HAL2     0.900000E-01   1.00800           0
     12470 MEMB     94       POPC     C3       CTL2     0.800000E-01   12.0110           0
     12471 MEMB     94       POPC     HX       HAL2     0.900000E-01   1.00800           0
     12472 MEMB     94       POPC     HY       HAL2     0.900000E-01   1.00800           0
     12473 MEMB     94       POPC     O31      OSL     -0.490000       15.9994           0
     12474 MEMB     94       POPC     C31      CL       0.900000       12.0110           0
     12475 MEMB     94       POPC     O32      OBL     -0.630000       15.9994           0
     12476 MEMB     94       POPC     C32      CTL2    -0.220000       12.0110           0
     12477 MEMB     94       POPC     H2X      HAL2     0.900000E-01   1.00800           0
     12478 MEMB     94       POPC     H2Y      HAL2     0.900000E-01   1.00800           0
     12479 MEMB     94       POPC     C23      CTL2    -0.180000       12.0110           0
     12480 MEMB     94       POPC     H3R      HAL2     0.900000E-01   1.00800           0
     12481 MEMB     94       POPC     H3S      HAL2     0.900000E-01   1.00800           0
     12482 MEMB     94       POPC     C24      CTL2    -0.180000       12.0110           0
     12483 MEMB     94       POPC     H4R      HAL2     0.900000E-01   1.00800           0
     12484 MEMB     94       POPC     H4S      HAL2     0.900000E-01   1.00800           0
     12485 MEMB     94       POPC     C25      CTL2    -0.180000       12.0110           0
     12486 MEMB     94       POPC     H5R      HAL2     0.900000E-01   1.00800           0
     12487 MEMB     94       POPC     H5S      HAL2     0.900000E-01   1.00800           0
     12488 MEMB     94       POPC     C26      CTL2    -0.180000       12.0110           0
     12489 MEMB     94       POPC     H6R      HAL2     0.900000E-01   1.00800           0
     12490 MEMB     94       POPC     H6S      HAL2     0.900000E-01   1.00800           0
     12491 MEMB     94       POPC     C27      CTL2    -0.180000       12.0110           0
     12492 MEMB     94       POPC     H7R      HAL2     0.900000E-01   1.00800           0
     12493 MEMB     94       POPC     H7S      HAL2     0.900000E-01   1.00800           0
     12494 MEMB     94       POPC     C28      CTL2    -0.180000       12.0110           0
     12495 MEMB     94       POPC     H8R      HAL2     0.900000E-01   1.00800           0
     12496 MEMB     94       POPC     H8S      HAL2     0.900000E-01   1.00800           0
     12497 MEMB     94       POPC     C29      CEL1    -0.150000       12.0110           0
     12498 MEMB     94       POPC     H91      HEL1     0.150000       1.00800           0
     12499 MEMB     94       POPC     C210     CEL1    -0.150000       12.0110           0
     12500 MEMB     94       POPC     H101     HEL1     0.150000       1.00800           0
     12501 MEMB     94       POPC     C211     CTL2    -0.180000       12.0110           0
     12502 MEMB     94       POPC     H11R     HAL2     0.900000E-01   1.00800           0
     12503 MEMB     94       POPC     H11S     HAL2     0.900000E-01   1.00800           0
     12504 MEMB     94       POPC     C212     CTL2    -0.180000       12.0110           0
     12505 MEMB     94       POPC     H12R     HAL2     0.900000E-01   1.00800           0
     12506 MEMB     94       POPC     H12S     HAL2     0.900000E-01   1.00800           0
     12507 MEMB     94       POPC     C213     CTL2    -0.180000       12.0110           0
     12508 MEMB     94       POPC     H13R     HAL2     0.900000E-01   1.00800           0
     12509 MEMB     94       POPC     H13S     HAL2     0.900000E-01   1.00800           0
     12510 MEMB     94       POPC     C214     CTL2    -0.180000       12.0110           0
     12511 MEMB     94       POPC     H14R     HAL2     0.900000E-01   1.00800           0
     12512 MEMB     94       POPC     H14S     HAL2     0.900000E-01   1.00800           0
     12513 MEMB     94       POPC     C215     CTL2    -0.180000       12.0110           0
     12514 MEMB     94       POPC     H15R     HAL2     0.900000E-01   1.00800           0
     12515 MEMB     94       POPC     H15S     HAL2     0.900000E-01   1.00800           0
     12516 MEMB     94       POPC     C216     CTL2    -0.180000       12.0110           0
     12517 MEMB     94       POPC     H16R     HAL2     0.900000E-01   1.00800           0
     12518 MEMB     94       POPC     H16S     HAL2     0.900000E-01   1.00800           0
     12519 MEMB     94       POPC     C217     CTL2    -0.180000       12.0110           0
     12520 MEMB     94       POPC     H17R     HAL2     0.900000E-01   1.00800           0
     12521 MEMB     94       POPC     H17S     HAL2     0.900000E-01   1.00800           0
     12522 MEMB     94       POPC     C218     CTL3    -0.270000       12.0110           0
     12523 MEMB     94       POPC     H18R     HAL3     0.900000E-01   1.00800           0
     12524 MEMB     94       POPC     H18S     HAL3     0.900000E-01   1.00800           0
     12525 MEMB     94       POPC     H18T     HAL3     0.900000E-01   1.00800           0
     12526 MEMB     94       POPC     C33      CTL2    -0.180000       12.0110           0
     12527 MEMB     94       POPC     H3X      HAL2     0.900000E-01   1.00800           0
     12528 MEMB     94       POPC     H3Y      HAL2     0.900000E-01   1.00800           0
     12529 MEMB     94       POPC     C34      CTL2    -0.180000       12.0110           0
     12530 MEMB     94       POPC     H4X      HAL2     0.900000E-01   1.00800           0
     12531 MEMB     94       POPC     H4Y      HAL2     0.900000E-01   1.00800           0
     12532 MEMB     94       POPC     C35      CTL2    -0.180000       12.0110           0
     12533 MEMB     94       POPC     H5X      HAL2     0.900000E-01   1.00800           0
     12534 MEMB     94       POPC     H5Y      HAL2     0.900000E-01   1.00800           0
     12535 MEMB     94       POPC     C36      CTL2    -0.180000       12.0110           0
     12536 MEMB     94       POPC     H6X      HAL2     0.900000E-01   1.00800           0
     12537 MEMB     94       POPC     H6Y      HAL2     0.900000E-01   1.00800           0
     12538 MEMB     94       POPC     C37      CTL2    -0.180000       12.0110           0
     12539 MEMB     94       POPC     H7X      HAL2     0.900000E-01   1.00800           0
     12540 MEMB     94       POPC     H7Y      HAL2     0.900000E-01   1.00800           0
     12541 MEMB     94       POPC     C38      CTL2    -0.180000       12.0110           0
     12542 MEMB     94       POPC     H8X      HAL2     0.900000E-01   1.00800           0
     12543 MEMB     94       POPC     H8Y      HAL2     0.900000E-01   1.00800           0
     12544 MEMB     94       POPC     C39      CTL2    -0.180000       12.0110           0
     12545 MEMB     94       POPC     H9X      HAL2     0.900000E-01   1.00800           0
     12546 MEMB     94       POPC     H9Y      HAL2     0.900000E-01   1.00800           0
     12547 MEMB     94       POPC     C310     CTL2    -0.180000       12.0110           0
     12548 MEMB     94       POPC     H10X     HAL2     0.900000E-01   1.00800           0
     12549 MEMB     94       POPC     H10Y     HAL2     0.900000E-01   1.00800           0
     12550 MEMB     94       POPC     C311     CTL2    -0.180000       12.0110           0
     12551 MEMB     94       POPC     H11X     HAL2     0.900000E-01   1.00800           0
     12552 MEMB     94       POPC     H11Y     HAL2     0.900000E-01   1.00800           0
     12553 MEMB     94       POPC     C312     CTL2    -0.180000       12.0110           0
     12554 MEMB     94       POPC     H12X     HAL2     0.900000E-01   1.00800           0
     12555 MEMB     94       POPC     H12Y     HAL2     0.900000E-01   1.00800           0
     12556 MEMB     94       POPC     C313     CTL2    -0.180000       12.0110           0
     12557 MEMB     94       POPC     H13X     HAL2     0.900000E-01   1.00800           0
     12558 MEMB     94       POPC     H13Y     HAL2     0.900000E-01   1.00800           0
     12559 MEMB     94       POPC     C314     CTL2    -0.180000       12.0110           0
     12560 MEMB     94       POPC     H14X     HAL2     0.900000E-01   1.00800           0
     12561 MEMB     94       POPC     H14Y     HAL2     0.900000E-01   1.00800           0
     12562 MEMB     94       POPC     C315     CTL2    -0.180000       12.0110           0
     12563 MEMB     94       POPC     H15X     HAL2     0.900000E-01   1.00800           0
     12564 MEMB     94       POPC     H15Y     HAL2     0.900000E-01   1.00800           0
     12565 MEMB     94       POPC     C316     CTL3    -0.270000       12.0110           0
     12566 MEMB     94       POPC     H16X     HAL3     0.900000E-01   1.00800           0
     12567 MEMB     94       POPC     H16Y     HAL3     0.900000E-01   1.00800           0
     12568 MEMB     94       POPC     H16Z     HAL3     0.900000E-01   1.00800           0
     12569 MEMB     95       POPC     N        NTL     -0.600000       14.0070           0
     12570 MEMB     95       POPC     C12      CTL2    -0.100000       12.0110           0
     12571 MEMB     95       POPC     H12A     HL       0.250000       1.00800           0
     12572 MEMB     95       POPC     H12B     HL       0.250000       1.00800           0
     12573 MEMB     95       POPC     C13      CTL5    -0.350000       12.0110           0
     12574 MEMB     95       POPC     H13A     HL       0.250000       1.00800           0
     12575 MEMB     95       POPC     H13B     HL       0.250000       1.00800           0
     12576 MEMB     95       POPC     H13C     HL       0.250000       1.00800           0
     12577 MEMB     95       POPC     C14      CTL5    -0.350000       12.0110           0
     12578 MEMB     95       POPC     H14A     HL       0.250000       1.00800           0
     12579 MEMB     95       POPC     H14B     HL       0.250000       1.00800           0
     12580 MEMB     95       POPC     H14C     HL       0.250000       1.00800           0
     12581 MEMB     95       POPC     C15      CTL5    -0.350000       12.0110           0
     12582 MEMB     95       POPC     H15A     HL       0.250000       1.00800           0
     12583 MEMB     95       POPC     H15B     HL       0.250000       1.00800           0
     12584 MEMB     95       POPC     H15C     HL       0.250000       1.00800           0
     12585 MEMB     95       POPC     C11      CTL2    -0.800000E-01   12.0110           0
     12586 MEMB     95       POPC     H11A     HAL2     0.900000E-01   1.00800           0
     12587 MEMB     95       POPC     H11B     HAL2     0.900000E-01   1.00800           0
     12588 MEMB     95       POPC     P        PL       1.500000       30.9740           0
     12589 MEMB     95       POPC     O13      O2L     -0.780000       15.9994           0
     12590 MEMB     95       POPC     O14      O2L     -0.780000       15.9994           0
     12591 MEMB     95       POPC     O12      OSLP    -0.570000       15.9994           0
     12592 MEMB     95       POPC     O11      OSLP    -0.570000       15.9994           0
     12593 MEMB     95       POPC     C1       CTL2    -0.800000E-01   12.0110           0
     12594 MEMB     95       POPC     HA       HAL2     0.900000E-01   1.00800           0
     12595 MEMB     95       POPC     HB       HAL2     0.900000E-01   1.00800           0
     12596 MEMB     95       POPC     C2       CTL1     0.170000       12.0110           0
     12597 MEMB     95       POPC     HS       HAL1     0.900000E-01   1.00800           0
     12598 MEMB     95       POPC     O21      OSL     -0.490000       15.9994           0
     12599 MEMB     95       POPC     C21      CL       0.900000       12.0110           0
     12600 MEMB     95       POPC     O22      OBL     -0.630000       15.9994           0
     12601 MEMB     95       POPC     C22      CTL2    -0.220000       12.0110           0
     12602 MEMB     95       POPC     H2R      HAL2     0.900000E-01   1.00800           0
     12603 MEMB     95       POPC     H2S      HAL2     0.900000E-01   1.00800           0
     12604 MEMB     95       POPC     C3       CTL2     0.800000E-01   12.0110           0
     12605 MEMB     95       POPC     HX       HAL2     0.900000E-01   1.00800           0
     12606 MEMB     95       POPC     HY       HAL2     0.900000E-01   1.00800           0
     12607 MEMB     95       POPC     O31      OSL     -0.490000       15.9994           0
     12608 MEMB     95       POPC     C31      CL       0.900000       12.0110           0
     12609 MEMB     95       POPC     O32      OBL     -0.630000       15.9994           0
     12610 MEMB     95       POPC     C32      CTL2    -0.220000       12.0110           0
     12611 MEMB     95       POPC     H2X      HAL2     0.900000E-01   1.00800           0
     12612 MEMB     95       POPC     H2Y      HAL2     0.900000E-01   1.00800           0
     12613 MEMB     95       POPC     C23      CTL2    -0.180000       12.0110           0
     12614 MEMB     95       POPC     H3R      HAL2     0.900000E-01   1.00800           0
     12615 MEMB     95       POPC     H3S      HAL2     0.900000E-01   1.00800           0
     12616 MEMB     95       POPC     C24      CTL2    -0.180000       12.0110           0
     12617 MEMB     95       POPC     H4R      HAL2     0.900000E-01   1.00800           0
     12618 MEMB     95       POPC     H4S      HAL2     0.900000E-01   1.00800           0
     12619 MEMB     95       POPC     C25      CTL2    -0.180000       12.0110           0
     12620 MEMB     95       POPC     H5R      HAL2     0.900000E-01   1.00800           0
     12621 MEMB     95       POPC     H5S      HAL2     0.900000E-01   1.00800           0
     12622 MEMB     95       POPC     C26      CTL2    -0.180000       12.0110           0
     12623 MEMB     95       POPC     H6R      HAL2     0.900000E-01   1.00800           0
     12624 MEMB     95       POPC     H6S      HAL2     0.900000E-01   1.00800           0
     12625 MEMB     95       POPC     C27      CTL2    -0.180000       12.0110           0
     12626 MEMB     95       POPC     H7R      HAL2     0.900000E-01   1.00800           0
     12627 MEMB     95       POPC     H7S      HAL2     0.900000E-01   1.00800           0
     12628 MEMB     95       POPC     C28      CTL2    -0.180000       12.0110           0
     12629 MEMB     95       POPC     H8R      HAL2     0.900000E-01   1.00800           0
     12630 MEMB     95       POPC     H8S      HAL2     0.900000E-01   1.00800           0
     12631 MEMB     95       POPC     C29      CEL1    -0.150000       12.0110           0
     12632 MEMB     95       POPC     H91      HEL1     0.150000       1.00800           0
     12633 MEMB     95       POPC     C210     CEL1    -0.150000       12.0110           0
     12634 MEMB     95       POPC     H101     HEL1     0.150000       1.00800           0
     12635 MEMB     95       POPC     C211     CTL2    -0.180000       12.0110           0
     12636 MEMB     95       POPC     H11R     HAL2     0.900000E-01   1.00800           0
     12637 MEMB     95       POPC     H11S     HAL2     0.900000E-01   1.00800           0
     12638 MEMB     95       POPC     C212     CTL2    -0.180000       12.0110           0
     12639 MEMB     95       POPC     H12R     HAL2     0.900000E-01   1.00800           0
     12640 MEMB     95       POPC     H12S     HAL2     0.900000E-01   1.00800           0
     12641 MEMB     95       POPC     C213     CTL2    -0.180000       12.0110           0
     12642 MEMB     95       POPC     H13R     HAL2     0.900000E-01   1.00800           0
     12643 MEMB     95       POPC     H13S     HAL2     0.900000E-01   1.00800           0
     12644 MEMB     95       POPC     C214     CTL2    -0.180000       12.0110           0
     12645 MEMB     95       POPC     H14R     HAL2     0.900000E-01   1.00800           0
     12646 MEMB     95       POPC     H14S     HAL2     0.900000E-01   1.00800           0
     12647 MEMB     95       POPC     C215     CTL2    -0.180000       12.0110           0
     12648 MEMB     95       POPC     H15R     HAL2     0.900000E-01   1.00800           0
     12649 MEMB     95       POPC     H15S     HAL2     0.900000E-01   1.00800           0
     12650 MEMB     95       POPC     C216     CTL2    -0.180000       12.0110           0
     12651 MEMB     95       POPC     H16R     HAL2     0.900000E-01   1.00800           0
     12652 MEMB     95       POPC     H16S     HAL2     0.900000E-01   1.00800           0
     12653 MEMB     95       POPC     C217     CTL2    -0.180000       12.0110           0
     12654 MEMB     95       POPC     H17R     HAL2     0.900000E-01   1.00800           0
     12655 MEMB     95       POPC     H17S     HAL2     0.900000E-01   1.00800           0
     12656 MEMB     95       POPC     C218     CTL3    -0.270000       12.0110           0
     12657 MEMB     95       POPC     H18R     HAL3     0.900000E-01   1.00800           0
     12658 MEMB     95       POPC     H18S     HAL3     0.900000E-01   1.00800           0
     12659 MEMB     95       POPC     H18T     HAL3     0.900000E-01   1.00800           0
     12660 MEMB     95       POPC     C33      CTL2    -0.180000       12.0110           0
     12661 MEMB     95       POPC     H3X      HAL2     0.900000E-01   1.00800           0
     12662 MEMB     95       POPC     H3Y      HAL2     0.900000E-01   1.00800           0
     12663 MEMB     95       POPC     C34      CTL2    -0.180000       12.0110           0
     12664 MEMB     95       POPC     H4X      HAL2     0.900000E-01   1.00800           0
     12665 MEMB     95       POPC     H4Y      HAL2     0.900000E-01   1.00800           0
     12666 MEMB     95       POPC     C35      CTL2    -0.180000       12.0110           0
     12667 MEMB     95       POPC     H5X      HAL2     0.900000E-01   1.00800           0
     12668 MEMB     95       POPC     H5Y      HAL2     0.900000E-01   1.00800           0
     12669 MEMB     95       POPC     C36      CTL2    -0.180000       12.0110           0
     12670 MEMB     95       POPC     H6X      HAL2     0.900000E-01   1.00800           0
     12671 MEMB     95       POPC     H6Y      HAL2     0.900000E-01   1.00800           0
     12672 MEMB     95       POPC     C37      CTL2    -0.180000       12.0110           0
     12673 MEMB     95       POPC     H7X      HAL2     0.900000E-01   1.00800           0
     12674 MEMB     95       POPC     H7Y      HAL2     0.900000E-01   1.00800           0
     12675 MEMB     95       POPC     C38      CTL2    -0.180000       12.0110           0
     12676 MEMB     95       POPC     H8X      HAL2     0.900000E-01   1.00800           0
     12677 MEMB     95       POPC     H8Y      HAL2     0.900000E-01   1.00800           0
     12678 MEMB     95       POPC     C39      CTL2    -0.180000       12.0110           0
     12679 MEMB     95       POPC     H9X      HAL2     0.900000E-01   1.00800           0
     12680 MEMB     95       POPC     H9Y      HAL2     0.900000E-01   1.00800           0
     12681 MEMB     95       POPC     C310     CTL2    -0.180000       12.0110           0
     12682 MEMB     95       POPC     H10X     HAL2     0.900000E-01   1.00800           0
     12683 MEMB     95       POPC     H10Y     HAL2     0.900000E-01   1.00800           0
     12684 MEMB     95       POPC     C311     CTL2    -0.180000       12.0110           0
     12685 MEMB     95       POPC     H11X     HAL2     0.900000E-01   1.00800           0
     12686 MEMB     95       POPC     H11Y     HAL2     0.900000E-01   1.00800           0
     12687 MEMB     95       POPC     C312     CTL2    -0.180000       12.0110           0
     12688 MEMB     95       POPC     H12X     HAL2     0.900000E-01   1.00800           0
     12689 MEMB     95       POPC     H12Y     HAL2     0.900000E-01   1.00800           0
     12690 MEMB     95       POPC     C313     CTL2    -0.180000       12.0110           0
     12691 MEMB     95       POPC     H13X     HAL2     0.900000E-01   1.00800           0
     12692 MEMB     95       POPC     H13Y     HAL2     0.900000E-01   1.00800           0
     12693 MEMB     95       POPC     C314     CTL2    -0.180000       12.0110           0
     12694 MEMB     95       POPC     H14X     HAL2     0.900000E-01   1.00800           0
     12695 MEMB     95       POPC     H14Y     HAL2     0.900000E-01   1.00800           0
     12696 MEMB     95       POPC     C315     CTL2    -0.180000       12.0110           0
     12697 MEMB     95       POPC     H15X     HAL2     0.900000E-01   1.00800           0
     12698 MEMB     95       POPC     H15Y     HAL2     0.900000E-01   1.00800           0
     12699 MEMB     95       POPC     C316     CTL3    -0.270000       12.0110           0
     12700 MEMB     95       POPC     H16X     HAL3     0.900000E-01   1.00800           0
     12701 MEMB     95       POPC     H16Y     HAL3     0.900000E-01   1.00800           0
     12702 MEMB     95       POPC     H16Z     HAL3     0.900000E-01   1.00800           0
     12703 MEMB     96       POPC     N        NTL     -0.600000       14.0070           0
     12704 MEMB     96       POPC     C12      CTL2    -0.100000       12.0110           0
     12705 MEMB     96       POPC     H12A     HL       0.250000       1.00800           0
     12706 MEMB     96       POPC     H12B     HL       0.250000       1.00800           0
     12707 MEMB     96       POPC     C13      CTL5    -0.350000       12.0110           0
     12708 MEMB     96       POPC     H13A     HL       0.250000       1.00800           0
     12709 MEMB     96       POPC     H13B     HL       0.250000       1.00800           0
     12710 MEMB     96       POPC     H13C     HL       0.250000       1.00800           0
     12711 MEMB     96       POPC     C14      CTL5    -0.350000       12.0110           0
     12712 MEMB     96       POPC     H14A     HL       0.250000       1.00800           0
     12713 MEMB     96       POPC     H14B     HL       0.250000       1.00800           0
     12714 MEMB     96       POPC     H14C     HL       0.250000       1.00800           0
     12715 MEMB     96       POPC     C15      CTL5    -0.350000       12.0110           0
     12716 MEMB     96       POPC     H15A     HL       0.250000       1.00800           0
     12717 MEMB     96       POPC     H15B     HL       0.250000       1.00800           0
     12718 MEMB     96       POPC     H15C     HL       0.250000       1.00800           0
     12719 MEMB     96       POPC     C11      CTL2    -0.800000E-01   12.0110           0
     12720 MEMB     96       POPC     H11A     HAL2     0.900000E-01   1.00800           0
     12721 MEMB     96       POPC     H11B     HAL2     0.900000E-01   1.00800           0
     12722 MEMB     96       POPC     P        PL       1.500000       30.9740           0
     12723 MEMB     96       POPC     O13      O2L     -0.780000       15.9994           0
     12724 MEMB     96       POPC     O14      O2L     -0.780000       15.9994           0
     12725 MEMB     96       POPC     O12      OSLP    -0.570000       15.9994           0
     12726 MEMB     96       POPC     O11      OSLP    -0.570000       15.9994           0
     12727 MEMB     96       POPC     C1       CTL2    -0.800000E-01   12.0110           0
     12728 MEMB     96       POPC     HA       HAL2     0.900000E-01   1.00800           0
     12729 MEMB     96       POPC     HB       HAL2     0.900000E-01   1.00800           0
     12730 MEMB     96       POPC     C2       CTL1     0.170000       12.0110           0
     12731 MEMB     96       POPC     HS       HAL1     0.900000E-01   1.00800           0
     12732 MEMB     96       POPC     O21      OSL     -0.490000       15.9994           0
     12733 MEMB     96       POPC     C21      CL       0.900000       12.0110           0
     12734 MEMB     96       POPC     O22      OBL     -0.630000       15.9994           0
     12735 MEMB     96       POPC     C22      CTL2    -0.220000       12.0110           0
     12736 MEMB     96       POPC     H2R      HAL2     0.900000E-01   1.00800           0
     12737 MEMB     96       POPC     H2S      HAL2     0.900000E-01   1.00800           0
     12738 MEMB     96       POPC     C3       CTL2     0.800000E-01   12.0110           0
     12739 MEMB     96       POPC     HX       HAL2     0.900000E-01   1.00800           0
     12740 MEMB     96       POPC     HY       HAL2     0.900000E-01   1.00800           0
     12741 MEMB     96       POPC     O31      OSL     -0.490000       15.9994           0
     12742 MEMB     96       POPC     C31      CL       0.900000       12.0110           0
     12743 MEMB     96       POPC     O32      OBL     -0.630000       15.9994           0
     12744 MEMB     96       POPC     C32      CTL2    -0.220000       12.0110           0
     12745 MEMB     96       POPC     H2X      HAL2     0.900000E-01   1.00800           0
     12746 MEMB     96       POPC     H2Y      HAL2     0.900000E-01   1.00800           0
     12747 MEMB     96       POPC     C23      CTL2    -0.180000       12.0110           0
     12748 MEMB     96       POPC     H3R      HAL2     0.900000E-01   1.00800           0
     12749 MEMB     96       POPC     H3S      HAL2     0.900000E-01   1.00800           0
     12750 MEMB     96       POPC     C24      CTL2    -0.180000       12.0110           0
     12751 MEMB     96       POPC     H4R      HAL2     0.900000E-01   1.00800           0
     12752 MEMB     96       POPC     H4S      HAL2     0.900000E-01   1.00800           0
     12753 MEMB     96       POPC     C25      CTL2    -0.180000       12.0110           0
     12754 MEMB     96       POPC     H5R      HAL2     0.900000E-01   1.00800           0
     12755 MEMB     96       POPC     H5S      HAL2     0.900000E-01   1.00800           0
     12756 MEMB     96       POPC     C26      CTL2    -0.180000       12.0110           0
     12757 MEMB     96       POPC     H6R      HAL2     0.900000E-01   1.00800           0
     12758 MEMB     96       POPC     H6S      HAL2     0.900000E-01   1.00800           0
     12759 MEMB     96       POPC     C27      CTL2    -0.180000       12.0110           0
     12760 MEMB     96       POPC     H7R      HAL2     0.900000E-01   1.00800           0
     12761 MEMB     96       POPC     H7S      HAL2     0.900000E-01   1.00800           0
     12762 MEMB     96       POPC     C28      CTL2    -0.180000       12.0110           0
     12763 MEMB     96       POPC     H8R      HAL2     0.900000E-01   1.00800           0
     12764 MEMB     96       POPC     H8S      HAL2     0.900000E-01   1.00800           0
     12765 MEMB     96       POPC     C29      CEL1    -0.150000       12.0110           0
     12766 MEMB     96       POPC     H91      HEL1     0.150000       1.00800           0
     12767 MEMB     96       POPC     C210     CEL1    -0.150000       12.0110           0
     12768 MEMB     96       POPC     H101     HEL1     0.150000       1.00800           0
     12769 MEMB     96       POPC     C211     CTL2    -0.180000       12.0110           0
     12770 MEMB     96       POPC     H11R     HAL2     0.900000E-01   1.00800           0
     12771 MEMB     96       POPC     H11S     HAL2     0.900000E-01   1.00800           0
     12772 MEMB     96       POPC     C212     CTL2    -0.180000       12.0110           0
     12773 MEMB     96       POPC     H12R     HAL2     0.900000E-01   1.00800           0
     12774 MEMB     96       POPC     H12S     HAL2     0.900000E-01   1.00800           0
     12775 MEMB     96       POPC     C213     CTL2    -0.180000       12.0110           0
     12776 MEMB     96       POPC     H13R     HAL2     0.900000E-01   1.00800           0
     12777 MEMB     96       POPC     H13S     HAL2     0.900000E-01   1.00800           0
     12778 MEMB     96       POPC     C214     CTL2    -0.180000       12.0110           0
     12779 MEMB     96       POPC     H14R     HAL2     0.900000E-01   1.00800           0
     12780 MEMB     96       POPC     H14S     HAL2     0.900000E-01   1.00800           0
     12781 MEMB     96       POPC     C215     CTL2    -0.180000       12.0110           0
     12782 MEMB     96       POPC     H15R     HAL2     0.900000E-01   1.00800           0
     12783 MEMB     96       POPC     H15S     HAL2     0.900000E-01   1.00800           0
     12784 MEMB     96       POPC     C216     CTL2    -0.180000       12.0110           0
     12785 MEMB     96       POPC     H16R     HAL2     0.900000E-01   1.00800           0
     12786 MEMB     96       POPC     H16S     HAL2     0.900000E-01   1.00800           0
     12787 MEMB     96       POPC     C217     CTL2    -0.180000       12.0110           0
     12788 MEMB     96       POPC     H17R     HAL2     0.900000E-01   1.00800           0
     12789 MEMB     96       POPC     H17S     HAL2     0.900000E-01   1.00800           0
     12790 MEMB     96       POPC     C218     CTL3    -0.270000       12.0110           0
     12791 MEMB     96       POPC     H18R     HAL3     0.900000E-01   1.00800           0
     12792 MEMB     96       POPC     H18S     HAL3     0.900000E-01   1.00800           0
     12793 MEMB     96       POPC     H18T     HAL3     0.900000E-01   1.00800           0
     12794 MEMB     96       POPC     C33      CTL2    -0.180000       12.0110           0
     12795 MEMB     96       POPC     H3X      HAL2     0.900000E-01   1.00800           0
     12796 MEMB     96       POPC     H3Y      HAL2     0.900000E-01   1.00800           0
     12797 MEMB     96       POPC     C34      CTL2    -0.180000       12.0110           0
     12798 MEMB     96       POPC     H4X      HAL2     0.900000E-01   1.00800           0
     12799 MEMB     96       POPC     H4Y      HAL2     0.900000E-01   1.00800           0
     12800 MEMB     96       POPC     C35      CTL2    -0.180000       12.0110           0
     12801 MEMB     96       POPC     H5X      HAL2     0.900000E-01   1.00800           0
     12802 MEMB     96       POPC     H5Y      HAL2     0.900000E-01   1.00800           0
     12803 MEMB     96       POPC     C36      CTL2    -0.180000       12.0110           0
     12804 MEMB     96       POPC     H6X      HAL2     0.900000E-01   1.00800           0
     12805 MEMB     96       POPC     H6Y      HAL2     0.900000E-01   1.00800           0
     12806 MEMB     96       POPC     C37      CTL2    -0.180000       12.0110           0
     12807 MEMB     96       POPC     H7X      HAL2     0.900000E-01   1.00800           0
     12808 MEMB     96       POPC     H7Y      HAL2     0.900000E-01   1.00800           0
     12809 MEMB     96       POPC     C38      CTL2    -0.180000       12.0110           0
     12810 MEMB     96       POPC     H8X      HAL2     0.900000E-01   1.00800           0
     12811 MEMB     96       POPC     H8Y      HAL2     0.900000E-01   1.00800           0
     12812 MEMB     96       POPC     C39      CTL2    -0.180000       12.0110           0
     12813 MEMB     96       POPC     H9X      HAL2     0.900000E-01   1.00800           0
     12814 MEMB     96       POPC     H9Y      HAL2     0.900000E-01   1.00800           0
     12815 MEMB     96       POPC     C310     CTL2    -0.180000       12.0110           0
     12816 MEMB     96       POPC     H10X     HAL2     0.900000E-01   1.00800           0
     12817 MEMB     96       POPC     H10Y     HAL2     0.900000E-01   1.00800           0
     12818 MEMB     96       POPC     C311     CTL2    -0.180000       12.0110           0
     12819 MEMB     96       POPC     H11X     HAL2     0.900000E-01   1.00800           0
     12820 MEMB     96       POPC     H11Y     HAL2     0.900000E-01   1.00800           0
     12821 MEMB     96       POPC     C312     CTL2    -0.180000       12.0110           0
     12822 MEMB     96       POPC     H12X     HAL2     0.900000E-01   1.00800           0
     12823 MEMB     96       POPC     H12Y     HAL2     0.900000E-01   1.00800           0
     12824 MEMB     96       POPC     C313     CTL2    -0.180000       12.0110           0
     12825 MEMB     96       POPC     H13X     HAL2     0.900000E-01   1.00800           0
     12826 MEMB     96       POPC     H13Y     HAL2     0.900000E-01   1.00800           0
     12827 MEMB     96       POPC     C314     CTL2    -0.180000       12.0110           0
     12828 MEMB     96       POPC     H14X     HAL2     0.900000E-01   1.00800           0
     12829 MEMB     96       POPC     H14Y     HAL2     0.900000E-01   1.00800           0
     12830 MEMB     96       POPC     C315     CTL2    -0.180000       12.0110           0
     12831 MEMB     96       POPC     H15X     HAL2     0.900000E-01   1.00800           0
     12832 MEMB     96       POPC     H15Y     HAL2     0.900000E-01   1.00800           0
     12833 MEMB     96       POPC     C316     CTL3    -0.270000       12.0110           0
     12834 MEMB     96       POPC     H16X     HAL3     0.900000E-01   1.00800           0
     12835 MEMB     96       POPC     H16Y     HAL3     0.900000E-01   1.00800           0
     12836 MEMB     96       POPC     H16Z     HAL3     0.900000E-01   1.00800           0
     12837 MEMB     97       POPC     N        NTL     -0.600000       14.0070           0
     12838 MEMB     97       POPC     C12      CTL2    -0.100000       12.0110           0
     12839 MEMB     97       POPC     H12A     HL       0.250000       1.00800           0
     12840 MEMB     97       POPC     H12B     HL       0.250000       1.00800           0
     12841 MEMB     97       POPC     C13      CTL5    -0.350000       12.0110           0
     12842 MEMB     97       POPC     H13A     HL       0.250000       1.00800           0
     12843 MEMB     97       POPC     H13B     HL       0.250000       1.00800           0
     12844 MEMB     97       POPC     H13C     HL       0.250000       1.00800           0
     12845 MEMB     97       POPC     C14      CTL5    -0.350000       12.0110           0
     12846 MEMB     97       POPC     H14A     HL       0.250000       1.00800           0
     12847 MEMB     97       POPC     H14B     HL       0.250000       1.00800           0
     12848 MEMB     97       POPC     H14C     HL       0.250000       1.00800           0
     12849 MEMB     97       POPC     C15      CTL5    -0.350000       12.0110           0
     12850 MEMB     97       POPC     H15A     HL       0.250000       1.00800           0
     12851 MEMB     97       POPC     H15B     HL       0.250000       1.00800           0
     12852 MEMB     97       POPC     H15C     HL       0.250000       1.00800           0
     12853 MEMB     97       POPC     C11      CTL2    -0.800000E-01   12.0110           0
     12854 MEMB     97       POPC     H11A     HAL2     0.900000E-01   1.00800           0
     12855 MEMB     97       POPC     H11B     HAL2     0.900000E-01   1.00800           0
     12856 MEMB     97       POPC     P        PL       1.500000       30.9740           0
     12857 MEMB     97       POPC     O13      O2L     -0.780000       15.9994           0
     12858 MEMB     97       POPC     O14      O2L     -0.780000       15.9994           0
     12859 MEMB     97       POPC     O12      OSLP    -0.570000       15.9994           0
     12860 MEMB     97       POPC     O11      OSLP    -0.570000       15.9994           0
     12861 MEMB     97       POPC     C1       CTL2    -0.800000E-01   12.0110           0
     12862 MEMB     97       POPC     HA       HAL2     0.900000E-01   1.00800           0
     12863 MEMB     97       POPC     HB       HAL2     0.900000E-01   1.00800           0
     12864 MEMB     97       POPC     C2       CTL1     0.170000       12.0110           0
     12865 MEMB     97       POPC     HS       HAL1     0.900000E-01   1.00800           0
     12866 MEMB     97       POPC     O21      OSL     -0.490000       15.9994           0
     12867 MEMB     97       POPC     C21      CL       0.900000       12.0110           0
     12868 MEMB     97       POPC     O22      OBL     -0.630000       15.9994           0
     12869 MEMB     97       POPC     C22      CTL2    -0.220000       12.0110           0
     12870 MEMB     97       POPC     H2R      HAL2     0.900000E-01   1.00800           0
     12871 MEMB     97       POPC     H2S      HAL2     0.900000E-01   1.00800           0
     12872 MEMB     97       POPC     C3       CTL2     0.800000E-01   12.0110           0
     12873 MEMB     97       POPC     HX       HAL2     0.900000E-01   1.00800           0
     12874 MEMB     97       POPC     HY       HAL2     0.900000E-01   1.00800           0
     12875 MEMB     97       POPC     O31      OSL     -0.490000       15.9994           0
     12876 MEMB     97       POPC     C31      CL       0.900000       12.0110           0
     12877 MEMB     97       POPC     O32      OBL     -0.630000       15.9994           0
     12878 MEMB     97       POPC     C32      CTL2    -0.220000       12.0110           0
     12879 MEMB     97       POPC     H2X      HAL2     0.900000E-01   1.00800           0
     12880 MEMB     97       POPC     H2Y      HAL2     0.900000E-01   1.00800           0
     12881 MEMB     97       POPC     C23      CTL2    -0.180000       12.0110           0
     12882 MEMB     97       POPC     H3R      HAL2     0.900000E-01   1.00800           0
     12883 MEMB     97       POPC     H3S      HAL2     0.900000E-01   1.00800           0
     12884 MEMB     97       POPC     C24      CTL2    -0.180000       12.0110           0
     12885 MEMB     97       POPC     H4R      HAL2     0.900000E-01   1.00800           0
     12886 MEMB     97       POPC     H4S      HAL2     0.900000E-01   1.00800           0
     12887 MEMB     97       POPC     C25      CTL2    -0.180000       12.0110           0
     12888 MEMB     97       POPC     H5R      HAL2     0.900000E-01   1.00800           0
     12889 MEMB     97       POPC     H5S      HAL2     0.900000E-01   1.00800           0
     12890 MEMB     97       POPC     C26      CTL2    -0.180000       12.0110           0
     12891 MEMB     97       POPC     H6R      HAL2     0.900000E-01   1.00800           0
     12892 MEMB     97       POPC     H6S      HAL2     0.900000E-01   1.00800           0
     12893 MEMB     97       POPC     C27      CTL2    -0.180000       12.0110           0
     12894 MEMB     97       POPC     H7R      HAL2     0.900000E-01   1.00800           0
     12895 MEMB     97       POPC     H7S      HAL2     0.900000E-01   1.00800           0
     12896 MEMB     97       POPC     C28      CTL2    -0.180000       12.0110           0
     12897 MEMB     97       POPC     H8R      HAL2     0.900000E-01   1.00800           0
     12898 MEMB     97       POPC     H8S      HAL2     0.900000E-01   1.00800           0
     12899 MEMB     97       POPC     C29      CEL1    -0.150000       12.0110           0
     12900 MEMB     97       POPC     H91      HEL1     0.150000       1.00800           0
     12901 MEMB     97       POPC     C210     CEL1    -0.150000       12.0110           0
     12902 MEMB     97       POPC     H101     HEL1     0.150000       1.00800           0
     12903 MEMB     97       POPC     C211     CTL2    -0.180000       12.0110           0
     12904 MEMB     97       POPC     H11R     HAL2     0.900000E-01   1.00800           0
     12905 MEMB     97       POPC     H11S     HAL2     0.900000E-01   1.00800           0
     12906 MEMB     97       POPC     C212     CTL2    -0.180000       12.0110           0
     12907 MEMB     97       POPC     H12R     HAL2     0.900000E-01   1.00800           0
     12908 MEMB     97       POPC     H12S     HAL2     0.900000E-01   1.00800           0
     12909 MEMB     97       POPC     C213     CTL2    -0.180000       12.0110           0
     12910 MEMB     97       POPC     H13R     HAL2     0.900000E-01   1.00800           0
     12911 MEMB     97       POPC     H13S     HAL2     0.900000E-01   1.00800           0
     12912 MEMB     97       POPC     C214     CTL2    -0.180000       12.0110           0
     12913 MEMB     97       POPC     H14R     HAL2     0.900000E-01   1.00800           0
     12914 MEMB     97       POPC     H14S     HAL2     0.900000E-01   1.00800           0
     12915 MEMB     97       POPC     C215     CTL2    -0.180000       12.0110           0
     12916 MEMB     97       POPC     H15R     HAL2     0.900000E-01   1.00800           0
     12917 MEMB     97       POPC     H15S     HAL2     0.900000E-01   1.00800           0
     12918 MEMB     97       POPC     C216     CTL2    -0.180000       12.0110           0
     12919 MEMB     97       POPC     H16R     HAL2     0.900000E-01   1.00800           0
     12920 MEMB     97       POPC     H16S     HAL2     0.900000E-01   1.00800           0
     12921 MEMB     97       POPC     C217     CTL2    -0.180000       12.0110           0
     12922 MEMB     97       POPC     H17R     HAL2     0.900000E-01   1.00800           0
     12923 MEMB     97       POPC     H17S     HAL2     0.900000E-01   1.00800           0
     12924 MEMB     97       POPC     C218     CTL3    -0.270000       12.0110           0
     12925 MEMB     97       POPC     H18R     HAL3     0.900000E-01   1.00800           0
     12926 MEMB     97       POPC     H18S     HAL3     0.900000E-01   1.00800           0
     12927 MEMB     97       POPC     H18T     HAL3     0.900000E-01   1.00800           0
     12928 MEMB     97       POPC     C33      CTL2    -0.180000       12.0110           0
     12929 MEMB     97       POPC     H3X      HAL2     0.900000E-01   1.00800           0
     12930 MEMB     97       POPC     H3Y      HAL2     0.900000E-01   1.00800           0
     12931 MEMB     97       POPC     C34      CTL2    -0.180000       12.0110           0
     12932 MEMB     97       POPC     H4X      HAL2     0.900000E-01   1.00800           0
     12933 MEMB     97       POPC     H4Y      HAL2     0.900000E-01   1.00800           0
     12934 MEMB     97       POPC     C35      CTL2    -0.180000       12.0110           0
     12935 MEMB     97       POPC     H5X      HAL2     0.900000E-01   1.00800           0
     12936 MEMB     97       POPC     H5Y      HAL2     0.900000E-01   1.00800           0
     12937 MEMB     97       POPC     C36      CTL2    -0.180000       12.0110           0
     12938 MEMB     97       POPC     H6X      HAL2     0.900000E-01   1.00800           0
     12939 MEMB     97       POPC     H6Y      HAL2     0.900000E-01   1.00800           0
     12940 MEMB     97       POPC     C37      CTL2    -0.180000       12.0110           0
     12941 MEMB     97       POPC     H7X      HAL2     0.900000E-01   1.00800           0
     12942 MEMB     97       POPC     H7Y      HAL2     0.900000E-01   1.00800           0
     12943 MEMB     97       POPC     C38      CTL2    -0.180000       12.0110           0
     12944 MEMB     97       POPC     H8X      HAL2     0.900000E-01   1.00800           0
     12945 MEMB     97       POPC     H8Y      HAL2     0.900000E-01   1.00800           0
     12946 MEMB     97       POPC     C39      CTL2    -0.180000       12.0110           0
     12947 MEMB     97       POPC     H9X      HAL2     0.900000E-01   1.00800           0
     12948 MEMB     97       POPC     H9Y      HAL2     0.900000E-01   1.00800           0
     12949 MEMB     97       POPC     C310     CTL2    -0.180000       12.0110           0
     12950 MEMB     97       POPC     H10X     HAL2     0.900000E-01   1.00800           0
     12951 MEMB     97       POPC     H10Y     HAL2     0.900000E-01   1.00800           0
     12952 MEMB     97       POPC     C311     CTL2    -0.180000       12.0110           0
     12953 MEMB     97       POPC     H11X     HAL2     0.900000E-01   1.00800           0
     12954 MEMB     97       POPC     H11Y     HAL2     0.900000E-01   1.00800           0
     12955 MEMB     97       POPC     C312     CTL2    -0.180000       12.0110           0
     12956 MEMB     97       POPC     H12X     HAL2     0.900000E-01   1.00800           0
     12957 MEMB     97       POPC     H12Y     HAL2     0.900000E-01   1.00800           0
     12958 MEMB     97       POPC     C313     CTL2    -0.180000       12.0110           0
     12959 MEMB     97       POPC     H13X     HAL2     0.900000E-01   1.00800           0
     12960 MEMB     97       POPC     H13Y     HAL2     0.900000E-01   1.00800           0
     12961 MEMB     97       POPC     C314     CTL2    -0.180000       12.0110           0
     12962 MEMB     97       POPC     H14X     HAL2     0.900000E-01   1.00800           0
     12963 MEMB     97       POPC     H14Y     HAL2     0.900000E-01   1.00800           0
     12964 MEMB     97       POPC     C315     CTL2    -0.180000       12.0110           0
     12965 MEMB     97       POPC     H15X     HAL2     0.900000E-01   1.00800           0
     12966 MEMB     97       POPC     H15Y     HAL2     0.900000E-01   1.00800           0
     12967 MEMB     97       POPC     C316     CTL3    -0.270000       12.0110           0
     12968 MEMB     97       POPC     H16X     HAL3     0.900000E-01   1.00800           0
     12969 MEMB     97       POPC     H16Y     HAL3     0.900000E-01   1.00800           0
     12970 MEMB     97       POPC     H16Z     HAL3     0.900000E-01   1.00800           0
     12971 MEMB     98       POPC     N        NTL     -0.600000       14.0070           0
     12972 MEMB     98       POPC     C12      CTL2    -0.100000       12.0110           0
     12973 MEMB     98       POPC     H12A     HL       0.250000       1.00800           0
     12974 MEMB     98       POPC     H12B     HL       0.250000       1.00800           0
     12975 MEMB     98       POPC     C13      CTL5    -0.350000       12.0110           0
     12976 MEMB     98       POPC     H13A     HL       0.250000       1.00800           0
     12977 MEMB     98       POPC     H13B     HL       0.250000       1.00800           0
     12978 MEMB     98       POPC     H13C     HL       0.250000       1.00800           0
     12979 MEMB     98       POPC     C14      CTL5    -0.350000       12.0110           0
     12980 MEMB     98       POPC     H14A     HL       0.250000       1.00800           0
     12981 MEMB     98       POPC     H14B     HL       0.250000       1.00800           0
     12982 MEMB     98       POPC     H14C     HL       0.250000       1.00800           0
     12983 MEMB     98       POPC     C15      CTL5    -0.350000       12.0110           0
     12984 MEMB     98       POPC     H15A     HL       0.250000       1.00800           0
     12985 MEMB     98       POPC     H15B     HL       0.250000       1.00800           0
     12986 MEMB     98       POPC     H15C     HL       0.250000       1.00800           0
     12987 MEMB     98       POPC     C11      CTL2    -0.800000E-01   12.0110           0
     12988 MEMB     98       POPC     H11A     HAL2     0.900000E-01   1.00800           0
     12989 MEMB     98       POPC     H11B     HAL2     0.900000E-01   1.00800           0
     12990 MEMB     98       POPC     P        PL       1.500000       30.9740           0
     12991 MEMB     98       POPC     O13      O2L     -0.780000       15.9994           0
     12992 MEMB     98       POPC     O14      O2L     -0.780000       15.9994           0
     12993 MEMB     98       POPC     O12      OSLP    -0.570000       15.9994           0
     12994 MEMB     98       POPC     O11      OSLP    -0.570000       15.9994           0
     12995 MEMB     98       POPC     C1       CTL2    -0.800000E-01   12.0110           0
     12996 MEMB     98       POPC     HA       HAL2     0.900000E-01   1.00800           0
     12997 MEMB     98       POPC     HB       HAL2     0.900000E-01   1.00800           0
     12998 MEMB     98       POPC     C2       CTL1     0.170000       12.0110           0
     12999 MEMB     98       POPC     HS       HAL1     0.900000E-01   1.00800           0
     13000 MEMB     98       POPC     O21      OSL     -0.490000       15.9994           0
     13001 MEMB     98       POPC     C21      CL       0.900000       12.0110           0
     13002 MEMB     98       POPC     O22      OBL     -0.630000       15.9994           0
     13003 MEMB     98       POPC     C22      CTL2    -0.220000       12.0110           0
     13004 MEMB     98       POPC     H2R      HAL2     0.900000E-01   1.00800           0
     13005 MEMB     98       POPC     H2S      HAL2     0.900000E-01   1.00800           0
     13006 MEMB     98       POPC     C3       CTL2     0.800000E-01   12.0110           0
     13007 MEMB     98       POPC     HX       HAL2     0.900000E-01   1.00800           0
     13008 MEMB     98       POPC     HY       HAL2     0.900000E-01   1.00800           0
     13009 MEMB     98       POPC     O31      OSL     -0.490000       15.9994           0
     13010 MEMB     98       POPC     C31      CL       0.900000       12.0110           0
     13011 MEMB     98       POPC     O32      OBL     -0.630000       15.9994           0
     13012 MEMB     98       POPC     C32      CTL2    -0.220000       12.0110           0
     13013 MEMB     98       POPC     H2X      HAL2     0.900000E-01   1.00800           0
     13014 MEMB     98       POPC     H2Y      HAL2     0.900000E-01   1.00800           0
     13015 MEMB     98       POPC     C23      CTL2    -0.180000       12.0110           0
     13016 MEMB     98       POPC     H3R      HAL2     0.900000E-01   1.00800           0
     13017 MEMB     98       POPC     H3S      HAL2     0.900000E-01   1.00800           0
     13018 MEMB     98       POPC     C24      CTL2    -0.180000       12.0110           0
     13019 MEMB     98       POPC     H4R      HAL2     0.900000E-01   1.00800           0
     13020 MEMB     98       POPC     H4S      HAL2     0.900000E-01   1.00800           0
     13021 MEMB     98       POPC     C25      CTL2    -0.180000       12.0110           0
     13022 MEMB     98       POPC     H5R      HAL2     0.900000E-01   1.00800           0
     13023 MEMB     98       POPC     H5S      HAL2     0.900000E-01   1.00800           0
     13024 MEMB     98       POPC     C26      CTL2    -0.180000       12.0110           0
     13025 MEMB     98       POPC     H6R      HAL2     0.900000E-01   1.00800           0
     13026 MEMB     98       POPC     H6S      HAL2     0.900000E-01   1.00800           0
     13027 MEMB     98       POPC     C27      CTL2    -0.180000       12.0110           0
     13028 MEMB     98       POPC     H7R      HAL2     0.900000E-01   1.00800           0
     13029 MEMB     98       POPC     H7S      HAL2     0.900000E-01   1.00800           0
     13030 MEMB     98       POPC     C28      CTL2    -0.180000       12.0110           0
     13031 MEMB     98       POPC     H8R      HAL2     0.900000E-01   1.00800           0
     13032 MEMB     98       POPC     H8S      HAL2     0.900000E-01   1.00800           0
     13033 MEMB     98       POPC     C29      CEL1    -0.150000       12.0110           0
     13034 MEMB     98       POPC     H91      HEL1     0.150000       1.00800           0
     13035 MEMB     98       POPC     C210     CEL1    -0.150000       12.0110           0
     13036 MEMB     98       POPC     H101     HEL1     0.150000       1.00800           0
     13037 MEMB     98       POPC     C211     CTL2    -0.180000       12.0110           0
     13038 MEMB     98       POPC     H11R     HAL2     0.900000E-01   1.00800           0
     13039 MEMB     98       POPC     H11S     HAL2     0.900000E-01   1.00800           0
     13040 MEMB     98       POPC     C212     CTL2    -0.180000       12.0110           0
     13041 MEMB     98       POPC     H12R     HAL2     0.900000E-01   1.00800           0
     13042 MEMB     98       POPC     H12S     HAL2     0.900000E-01   1.00800           0
     13043 MEMB     98       POPC     C213     CTL2    -0.180000       12.0110           0
     13044 MEMB     98       POPC     H13R     HAL2     0.900000E-01   1.00800           0
     13045 MEMB     98       POPC     H13S     HAL2     0.900000E-01   1.00800           0
     13046 MEMB     98       POPC     C214     CTL2    -0.180000       12.0110           0
     13047 MEMB     98       POPC     H14R     HAL2     0.900000E-01   1.00800           0
     13048 MEMB     98       POPC     H14S     HAL2     0.900000E-01   1.00800           0
     13049 MEMB     98       POPC     C215     CTL2    -0.180000       12.0110           0
     13050 MEMB     98       POPC     H15R     HAL2     0.900000E-01   1.00800           0
     13051 MEMB     98       POPC     H15S     HAL2     0.900000E-01   1.00800           0
     13052 MEMB     98       POPC     C216     CTL2    -0.180000       12.0110           0
     13053 MEMB     98       POPC     H16R     HAL2     0.900000E-01   1.00800           0
     13054 MEMB     98       POPC     H16S     HAL2     0.900000E-01   1.00800           0
     13055 MEMB     98       POPC     C217     CTL2    -0.180000       12.0110           0
     13056 MEMB     98       POPC     H17R     HAL2     0.900000E-01   1.00800           0
     13057 MEMB     98       POPC     H17S     HAL2     0.900000E-01   1.00800           0
     13058 MEMB     98       POPC     C218     CTL3    -0.270000       12.0110           0
     13059 MEMB     98       POPC     H18R     HAL3     0.900000E-01   1.00800           0
     13060 MEMB     98       POPC     H18S     HAL3     0.900000E-01   1.00800           0
     13061 MEMB     98       POPC     H18T     HAL3     0.900000E-01   1.00800           0
     13062 MEMB     98       POPC     C33      CTL2    -0.180000       12.0110           0
     13063 MEMB     98       POPC     H3X      HAL2     0.900000E-01   1.00800           0
     13064 MEMB     98       POPC     H3Y      HAL2     0.900000E-01   1.00800           0
     13065 MEMB     98       POPC     C34      CTL2    -0.180000       12.0110           0
     13066 MEMB     98       POPC     H4X      HAL2     0.900000E-01   1.00800           0
     13067 MEMB     98       POPC     H4Y      HAL2     0.900000E-01   1.00800           0
     13068 MEMB     98       POPC     C35      CTL2    -0.180000       12.0110           0
     13069 MEMB     98       POPC     H5X      HAL2     0.900000E-01   1.00800           0
     13070 MEMB     98       POPC     H5Y      HAL2     0.900000E-01   1.00800           0
     13071 MEMB     98       POPC     C36      CTL2    -0.180000       12.0110           0
     13072 MEMB     98       POPC     H6X      HAL2     0.900000E-01   1.00800           0
     13073 MEMB     98       POPC     H6Y      HAL2     0.900000E-01   1.00800           0
     13074 MEMB     98       POPC     C37      CTL2    -0.180000       12.0110           0
     13075 MEMB     98       POPC     H7X      HAL2     0.900000E-01   1.00800           0
     13076 MEMB     98       POPC     H7Y      HAL2     0.900000E-01   1.00800           0
     13077 MEMB     98       POPC     C38      CTL2    -0.180000       12.0110           0
     13078 MEMB     98       POPC     H8X      HAL2     0.900000E-01   1.00800           0
     13079 MEMB     98       POPC     H8Y      HAL2     0.900000E-01   1.00800           0
     13080 MEMB     98       POPC     C39      CTL2    -0.180000       12.0110           0
     13081 MEMB     98       POPC     H9X      HAL2     0.900000E-01   1.00800           0
     13082 MEMB     98       POPC     H9Y      HAL2     0.900000E-01   1.00800           0
     13083 MEMB     98       POPC     C310     CTL2    -0.180000       12.0110           0
     13084 MEMB     98       POPC     H10X     HAL2     0.900000E-01   1.00800           0
     13085 MEMB     98       POPC     H10Y     HAL2     0.900000E-01   1.00800           0
     13086 MEMB     98       POPC     C311     CTL2    -0.180000       12.0110           0
     13087 MEMB     98       POPC     H11X     HAL2     0.900000E-01   1.00800           0
     13088 MEMB     98       POPC     H11Y     HAL2     0.900000E-01   1.00800           0
     13089 MEMB     98       POPC     C312     CTL2    -0.180000       12.0110           0
     13090 MEMB     98       POPC     H12X     HAL2     0.900000E-01   1.00800           0
     13091 MEMB     98       POPC     H12Y     HAL2     0.900000E-01   1.00800           0
     13092 MEMB     98       POPC     C313     CTL2    -0.180000       12.0110           0
     13093 MEMB     98       POPC     H13X     HAL2     0.900000E-01   1.00800           0
     13094 MEMB     98       POPC     H13Y     HAL2     0.900000E-01   1.00800           0
     13095 MEMB     98       POPC     C314     CTL2    -0.180000       12.0110           0
     13096 MEMB     98       POPC     H14X     HAL2     0.900000E-01   1.00800           0
     13097 MEMB     98       POPC     H14Y     HAL2     0.900000E-01   1.00800           0
     13098 MEMB     98       POPC     C315     CTL2    -0.180000       12.0110           0
     13099 MEMB     98       POPC     H15X     HAL2     0.900000E-01   1.00800           0
     13100 MEMB     98       POPC     H15Y     HAL2     0.900000E-01   1.00800           0
     13101 MEMB     98       POPC     C316     CTL3    -0.270000       12.0110           0
     13102 MEMB     98       POPC     H16X     HAL3     0.900000E-01   1.00800           0
     13103 MEMB     98       POPC     H16Y     HAL3     0.900000E-01   1.00800           0
     13104 MEMB     98       POPC     H16Z     HAL3     0.900000E-01   1.00800           0
     13105 MEMB     99       POPC     N        NTL     -0.600000       14.0070           0
     13106 MEMB     99       POPC     C12      CTL2    -0.100000       12.0110           0
     13107 MEMB     99       POPC     H12A     HL       0.250000       1.00800           0
     13108 MEMB     99       POPC     H12B     HL       0.250000       1.00800           0
     13109 MEMB     99       POPC     C13      CTL5    -0.350000       12.0110           0
     13110 MEMB     99       POPC     H13A     HL       0.250000       1.00800           0
     13111 MEMB     99       POPC     H13B     HL       0.250000       1.00800           0
     13112 MEMB     99       POPC     H13C     HL       0.250000       1.00800           0
     13113 MEMB     99       POPC     C14      CTL5    -0.350000       12.0110           0
     13114 MEMB     99       POPC     H14A     HL       0.250000       1.00800           0
     13115 MEMB     99       POPC     H14B     HL       0.250000       1.00800           0
     13116 MEMB     99       POPC     H14C     HL       0.250000       1.00800           0
     13117 MEMB     99       POPC     C15      CTL5    -0.350000       12.0110           0
     13118 MEMB     99       POPC     H15A     HL       0.250000       1.00800           0
     13119 MEMB     99       POPC     H15B     HL       0.250000       1.00800           0
     13120 MEMB     99       POPC     H15C     HL       0.250000       1.00800           0
     13121 MEMB     99       POPC     C11      CTL2    -0.800000E-01   12.0110           0
     13122 MEMB     99       POPC     H11A     HAL2     0.900000E-01   1.00800           0
     13123 MEMB     99       POPC     H11B     HAL2     0.900000E-01   1.00800           0
     13124 MEMB     99       POPC     P        PL       1.500000       30.9740           0
     13125 MEMB     99       POPC     O13      O2L     -0.780000       15.9994           0
     13126 MEMB     99       POPC     O14      O2L     -0.780000       15.9994           0
     13127 MEMB     99       POPC     O12      OSLP    -0.570000       15.9994           0
     13128 MEMB     99       POPC     O11      OSLP    -0.570000       15.9994           0
     13129 MEMB     99       POPC     C1       CTL2    -0.800000E-01   12.0110           0
     13130 MEMB     99       POPC     HA       HAL2     0.900000E-01   1.00800           0
     13131 MEMB     99       POPC     HB       HAL2     0.900000E-01   1.00800           0
     13132 MEMB     99       POPC     C2       CTL1     0.170000       12.0110           0
     13133 MEMB     99       POPC     HS       HAL1     0.900000E-01   1.00800           0
     13134 MEMB     99       POPC     O21      OSL     -0.490000       15.9994           0
     13135 MEMB     99       POPC     C21      CL       0.900000       12.0110           0
     13136 MEMB     99       POPC     O22      OBL     -0.630000       15.9994           0
     13137 MEMB     99       POPC     C22      CTL2    -0.220000       12.0110           0
     13138 MEMB     99       POPC     H2R      HAL2     0.900000E-01   1.00800           0
     13139 MEMB     99       POPC     H2S      HAL2     0.900000E-01   1.00800           0
     13140 MEMB     99       POPC     C3       CTL2     0.800000E-01   12.0110           0
     13141 MEMB     99       POPC     HX       HAL2     0.900000E-01   1.00800           0
     13142 MEMB     99       POPC     HY       HAL2     0.900000E-01   1.00800           0
     13143 MEMB     99       POPC     O31      OSL     -0.490000       15.9994           0
     13144 MEMB     99       POPC     C31      CL       0.900000       12.0110           0
     13145 MEMB     99       POPC     O32      OBL     -0.630000       15.9994           0
     13146 MEMB     99       POPC     C32      CTL2    -0.220000       12.0110           0
     13147 MEMB     99       POPC     H2X      HAL2     0.900000E-01   1.00800           0
     13148 MEMB     99       POPC     H2Y      HAL2     0.900000E-01   1.00800           0
     13149 MEMB     99       POPC     C23      CTL2    -0.180000       12.0110           0
     13150 MEMB     99       POPC     H3R      HAL2     0.900000E-01   1.00800           0
     13151 MEMB     99       POPC     H3S      HAL2     0.900000E-01   1.00800           0
     13152 MEMB     99       POPC     C24      CTL2    -0.180000       12.0110           0
     13153 MEMB     99       POPC     H4R      HAL2     0.900000E-01   1.00800           0
     13154 MEMB     99       POPC     H4S      HAL2     0.900000E-01   1.00800           0
     13155 MEMB     99       POPC     C25      CTL2    -0.180000       12.0110           0
     13156 MEMB     99       POPC     H5R      HAL2     0.900000E-01   1.00800           0
     13157 MEMB     99       POPC     H5S      HAL2     0.900000E-01   1.00800           0
     13158 MEMB     99       POPC     C26      CTL2    -0.180000       12.0110           0
     13159 MEMB     99       POPC     H6R      HAL2     0.900000E-01   1.00800           0
     13160 MEMB     99       POPC     H6S      HAL2     0.900000E-01   1.00800           0
     13161 MEMB     99       POPC     C27      CTL2    -0.180000       12.0110           0
     13162 MEMB     99       POPC     H7R      HAL2     0.900000E-01   1.00800           0
     13163 MEMB     99       POPC     H7S      HAL2     0.900000E-01   1.00800           0
     13164 MEMB     99       POPC     C28      CTL2    -0.180000       12.0110           0
     13165 MEMB     99       POPC     H8R      HAL2     0.900000E-01   1.00800           0
     13166 MEMB     99       POPC     H8S      HAL2     0.900000E-01   1.00800           0
     13167 MEMB     99       POPC     C29      CEL1    -0.150000       12.0110           0
     13168 MEMB     99       POPC     H91      HEL1     0.150000       1.00800           0
     13169 MEMB     99       POPC     C210     CEL1    -0.150000       12.0110           0
     13170 MEMB     99       POPC     H101     HEL1     0.150000       1.00800           0
     13171 MEMB     99       POPC     C211     CTL2    -0.180000       12.0110           0
     13172 MEMB     99       POPC     H11R     HAL2     0.900000E-01   1.00800           0
     13173 MEMB     99       POPC     H11S     HAL2     0.900000E-01   1.00800           0
     13174 MEMB     99       POPC     C212     CTL2    -0.180000       12.0110           0
     13175 MEMB     99       POPC     H12R     HAL2     0.900000E-01   1.00800           0
     13176 MEMB     99       POPC     H12S     HAL2     0.900000E-01   1.00800           0
     13177 MEMB     99       POPC     C213     CTL2    -0.180000       12.0110           0
     13178 MEMB     99       POPC     H13R     HAL2     0.900000E-01   1.00800           0
     13179 MEMB     99       POPC     H13S     HAL2     0.900000E-01   1.00800           0
     13180 MEMB     99       POPC     C214     CTL2    -0.180000       12.0110           0
     13181 MEMB     99       POPC     H14R     HAL2     0.900000E-01   1.00800           0
     13182 MEMB     99       POPC     H14S     HAL2     0.900000E-01   1.00800           0
     13183 MEMB     99       POPC     C215     CTL2    -0.180000       12.0110           0
     13184 MEMB     99       POPC     H15R     HAL2     0.900000E-01   1.00800           0
     13185 MEMB     99       POPC     H15S     HAL2     0.900000E-01   1.00800           0
     13186 MEMB     99       POPC     C216     CTL2    -0.180000       12.0110           0
     13187 MEMB     99       POPC     H16R     HAL2     0.900000E-01   1.00800           0
     13188 MEMB     99       POPC     H16S     HAL2     0.900000E-01   1.00800           0
     13189 MEMB     99       POPC     C217     CTL2    -0.180000       12.0110           0
     13190 MEMB     99       POPC     H17R     HAL2     0.900000E-01   1.00800           0
     13191 MEMB     99       POPC     H17S     HAL2     0.900000E-01   1.00800           0
     13192 MEMB     99       POPC     C218     CTL3    -0.270000       12.0110           0
     13193 MEMB     99       POPC     H18R     HAL3     0.900000E-01   1.00800           0
     13194 MEMB     99       POPC     H18S     HAL3     0.900000E-01   1.00800           0
     13195 MEMB     99       POPC     H18T     HAL3     0.900000E-01   1.00800           0
     13196 MEMB     99       POPC     C33      CTL2    -0.180000       12.0110           0
     13197 MEMB     99       POPC     H3X      HAL2     0.900000E-01   1.00800           0
     13198 MEMB     99       POPC     H3Y      HAL2     0.900000E-01   1.00800           0
     13199 MEMB     99       POPC     C34      CTL2    -0.180000       12.0110           0
     13200 MEMB     99       POPC     H4X      HAL2     0.900000E-01   1.00800           0
     13201 MEMB     99       POPC     H4Y      HAL2     0.900000E-01   1.00800           0
     13202 MEMB     99       POPC     C35      CTL2    -0.180000       12.0110           0
     13203 MEMB     99       POPC     H5X      HAL2     0.900000E-01   1.00800           0
     13204 MEMB     99       POPC     H5Y      HAL2     0.900000E-01   1.00800           0
     13205 MEMB     99       POPC     C36      CTL2    -0.180000       12.0110           0
     13206 MEMB     99       POPC     H6X      HAL2     0.900000E-01   1.00800           0
     13207 MEMB     99       POPC     H6Y      HAL2     0.900000E-01   1.00800           0
     13208 MEMB     99       POPC     C37      CTL2    -0.180000       12.0110           0
     13209 MEMB     99       POPC     H7X      HAL2     0.900000E-01   1.00800           0
     13210 MEMB     99       POPC     H7Y      HAL2     0.900000E-01   1.00800           0
     13211 MEMB     99       POPC     C38      CTL2    -0.180000       12.0110           0
     13212 MEMB     99       POPC     H8X      HAL2     0.900000E-01   1.00800           0
     13213 MEMB     99       POPC     H8Y      HAL2     0.900000E-01   1.00800           0
     13214 MEMB     99       POPC     C39      CTL2    -0.180000       12.0110           0
     13215 MEMB     99       POPC     H9X      HAL2     0.900000E-01   1.00800           0
     13216 MEMB     99       POPC     H9Y      HAL2     0.900000E-01   1.00800           0
     13217 MEMB     99       POPC     C310     CTL2    -0.180000       12.0110           0
     13218 MEMB     99       POPC     H10X     HAL2     0.900000E-01   1.00800           0
     13219 MEMB     99       POPC     H10Y     HAL2     0.900000E-01   1.00800           0
     13220 MEMB     99       POPC     C311     CTL2    -0.180000       12.0110           0
     13221 MEMB     99       POPC     H11X     HAL2     0.900000E-01   1.00800           0
     13222 MEMB     99       POPC     H11Y     HAL2     0.900000E-01   1.00800           0
     13223 MEMB     99       POPC     C312     CTL2    -0.180000       12.0110           0
     13224 MEMB     99       POPC     H12X     HAL2     0.900000E-01   1.00800           0
     13225 MEMB     99       POPC     H12Y     HAL2     0.900000E-01   1.00800           0
     13226 MEMB     99       POPC     C313     CTL2    -0.180000       12.0110           0
     13227 MEMB     99       POPC     H13X     HAL2     0.900000E-01   1.00800           0
     13228 MEMB     99       POPC     H13Y     HAL2     0.900000E-01   1.00800           0
     13229 MEMB     99       POPC     C314     CTL2    -0.180000       12.0110           0
     13230 MEMB     99       POPC     H14X     HAL2     0.900000E-01   1.00800           0
     13231 MEMB     99       POPC     H14Y     HAL2     0.900000E-01   1.00800           0
     13232 MEMB     99       POPC     C315     CTL2    -0.180000       12.0110           0
     13233 MEMB     99       POPC     H15X     HAL2     0.900000E-01   1.00800           0
     13234 MEMB     99       POPC     H15Y     HAL2     0.900000E-01   1.00800           0
     13235 MEMB     99       POPC     C316     CTL3    -0.270000       12.0110           0
     13236 MEMB     99       POPC     H16X     HAL3     0.900000E-01   1.00800           0
     13237 MEMB     99       POPC     H16Y     HAL3     0.900000E-01   1.00800           0
     13238 MEMB     99       POPC     H16Z     HAL3     0.900000E-01   1.00800           0
     13239 MEMB     100      POPC     N        NTL     -0.600000       14.0070           0
     13240 MEMB     100      POPC     C12      CTL2    -0.100000       12.0110           0
     13241 MEMB     100      POPC     H12A     HL       0.250000       1.00800           0
     13242 MEMB     100      POPC     H12B     HL       0.250000       1.00800           0
     13243 MEMB     100      POPC     C13      CTL5    -0.350000       12.0110           0
     13244 MEMB     100      POPC     H13A     HL       0.250000       1.00800           0
     13245 MEMB     100      POPC     H13B     HL       0.250000       1.00800           0
     13246 MEMB     100      POPC     H13C     HL       0.250000       1.00800           0
     13247 MEMB     100      POPC     C14      CTL5    -0.350000       12.0110           0
     13248 MEMB     100      POPC     H14A     HL       0.250000       1.00800           0
     13249 MEMB     100      POPC     H14B     HL       0.250000       1.00800           0
     13250 MEMB     100      POPC     H14C     HL       0.250000       1.00800           0
     13251 MEMB     100      POPC     C15      CTL5    -0.350000       12.0110           0
     13252 MEMB     100      POPC     H15A     HL       0.250000       1.00800           0
     13253 MEMB     100      POPC     H15B     HL       0.250000       1.00800           0
     13254 MEMB     100      POPC     H15C     HL       0.250000       1.00800           0
     13255 MEMB     100      POPC     C11      CTL2    -0.800000E-01   12.0110           0
     13256 MEMB     100      POPC     H11A     HAL2     0.900000E-01   1.00800           0
     13257 MEMB     100      POPC     H11B     HAL2     0.900000E-01   1.00800           0
     13258 MEMB     100      POPC     P        PL       1.500000       30.9740           0
     13259 MEMB     100      POPC     O13      O2L     -0.780000       15.9994           0
     13260 MEMB     100      POPC     O14      O2L     -0.780000       15.9994           0
     13261 MEMB     100      POPC     O12      OSLP    -0.570000       15.9994           0
     13262 MEMB     100      POPC     O11      OSLP    -0.570000       15.9994           0
     13263 MEMB     100      POPC     C1       CTL2    -0.800000E-01   12.0110           0
     13264 MEMB     100      POPC     HA       HAL2     0.900000E-01   1.00800           0
     13265 MEMB     100      POPC     HB       HAL2     0.900000E-01   1.00800           0
     13266 MEMB     100      POPC     C2       CTL1     0.170000       12.0110           0
     13267 MEMB     100      POPC     HS       HAL1     0.900000E-01   1.00800           0
     13268 MEMB     100      POPC     O21      OSL     -0.490000       15.9994           0
     13269 MEMB     100      POPC     C21      CL       0.900000       12.0110           0
     13270 MEMB     100      POPC     O22      OBL     -0.630000       15.9994           0
     13271 MEMB     100      POPC     C22      CTL2    -0.220000       12.0110           0
     13272 MEMB     100      POPC     H2R      HAL2     0.900000E-01   1.00800           0
     13273 MEMB     100      POPC     H2S      HAL2     0.900000E-01   1.00800           0
     13274 MEMB     100      POPC     C3       CTL2     0.800000E-01   12.0110           0
     13275 MEMB     100      POPC     HX       HAL2     0.900000E-01   1.00800           0
     13276 MEMB     100      POPC     HY       HAL2     0.900000E-01   1.00800           0
     13277 MEMB     100      POPC     O31      OSL     -0.490000       15.9994           0
     13278 MEMB     100      POPC     C31      CL       0.900000       12.0110           0
     13279 MEMB     100      POPC     O32      OBL     -0.630000       15.9994           0
     13280 MEMB     100      POPC     C32      CTL2    -0.220000       12.0110           0
     13281 MEMB     100      POPC     H2X      HAL2     0.900000E-01   1.00800           0
     13282 MEMB     100      POPC     H2Y      HAL2     0.900000E-01   1.00800           0
     13283 MEMB     100      POPC     C23      CTL2    -0.180000       12.0110           0
     13284 MEMB     100      POPC     H3R      HAL2     0.900000E-01   1.00800           0
     13285 MEMB     100      POPC     H3S      HAL2     0.900000E-01   1.00800           0
     13286 MEMB     100      POPC     C24      CTL2    -0.180000       12.0110           0
     13287 MEMB     100      POPC     H4R      HAL2     0.900000E-01   1.00800           0
     13288 MEMB     100      POPC     H4S      HAL2     0.900000E-01   1.00800           0
     13289 MEMB     100      POPC     C25      CTL2    -0.180000       12.0110           0
     13290 MEMB     100      POPC     H5R      HAL2     0.900000E-01   1.00800           0
     13291 MEMB     100      POPC     H5S      HAL2     0.900000E-01   1.00800           0
     13292 MEMB     100      POPC     C26      CTL2    -0.180000       12.0110           0
     13293 MEMB     100      POPC     H6R      HAL2     0.900000E-01   1.00800           0
     13294 MEMB     100      POPC     H6S      HAL2     0.900000E-01   1.00800           0
     13295 MEMB     100      POPC     C27      CTL2    -0.180000       12.0110           0
     13296 MEMB     100      POPC     H7R      HAL2     0.900000E-01   1.00800           0
     13297 MEMB     100      POPC     H7S      HAL2     0.900000E-01   1.00800           0
     13298 MEMB     100      POPC     C28      CTL2    -0.180000       12.0110           0
     13299 MEMB     100      POPC     H8R      HAL2     0.900000E-01   1.00800           0
     13300 MEMB     100      POPC     H8S      HAL2     0.900000E-01   1.00800           0
     13301 MEMB     100      POPC     C29      CEL1    -0.150000       12.0110           0
     13302 MEMB     100      POPC     H91      HEL1     0.150000       1.00800           0
     13303 MEMB     100      POPC     C210     CEL1    -0.150000       12.0110           0
     13304 MEMB     100      POPC     H101     HEL1     0.150000       1.00800           0
     13305 MEMB     100      POPC     C211     CTL2    -0.180000       12.0110           0
     13306 MEMB     100      POPC     H11R     HAL2     0.900000E-01   1.00800           0
     13307 MEMB     100      POPC     H11S     HAL2     0.900000E-01   1.00800           0
     13308 MEMB     100      POPC     C212     CTL2    -0.180000       12.0110           0
     13309 MEMB     100      POPC     H12R     HAL2     0.900000E-01   1.00800           0
     13310 MEMB     100      POPC     H12S     HAL2     0.900000E-01   1.00800           0
     13311 MEMB     100      POPC     C213     CTL2    -0.180000       12.0110           0
     13312 MEMB     100      POPC     H13R     HAL2     0.900000E-01   1.00800           0
     13313 MEMB     100      POPC     H13S     HAL2     0.900000E-01   1.00800           0
     13314 MEMB     100      POPC     C214     CTL2    -0.180000       12.0110           0
     13315 MEMB     100      POPC     H14R     HAL2     0.900000E-01   1.00800           0
     13316 MEMB     100      POPC     H14S     HAL2     0.900000E-01   1.00800           0
     13317 MEMB     100      POPC     C215     CTL2    -0.180000       12.0110           0
     13318 MEMB     100      POPC     H15R     HAL2     0.900000E-01   1.00800           0
     13319 MEMB     100      POPC     H15S     HAL2     0.900000E-01   1.00800           0
     13320 MEMB     100      POPC     C216     CTL2    -0.180000       12.0110           0
     13321 MEMB     100      POPC     H16R     HAL2     0.900000E-01   1.00800           0
     13322 MEMB     100      POPC     H16S     HAL2     0.900000E-01   1.00800           0
     13323 MEMB     100      POPC     C217     CTL2    -0.180000       12.0110           0
     13324 MEMB     100      POPC     H17R     HAL2     0.900000E-01   1.00800           0
     13325 MEMB     100      POPC     H17S     HAL2     0.900000E-01   1.00800           0
     13326 MEMB     100      POPC     C218     CTL3    -0.270000       12.0110           0
     13327 MEMB     100      POPC     H18R     HAL3     0.900000E-01   1.00800           0
     13328 MEMB     100      POPC     H18S     HAL3     0.900000E-01   1.00800           0
     13329 MEMB     100      POPC     H18T     HAL3     0.900000E-01   1.00800           0
     13330 MEMB     100      POPC     C33      CTL2    -0.180000       12.0110           0
     13331 MEMB     100      POPC     H3X      HAL2     0.900000E-01   1.00800           0
     13332 MEMB     100      POPC     H3Y      HAL2     0.900000E-01   1.00800           0
     13333 MEMB     100      POPC     C34      CTL2    -0.180000       12.0110           0
     13334 MEMB     100      POPC     H4X      HAL2     0.900000E-01   1.00800           0
     13335 MEMB     100      POPC     H4Y      HAL2     0.900000E-01   1.00800           0
     13336 MEMB     100      POPC     C35      CTL2    -0.180000       12.0110           0
     13337 MEMB     100      POPC     H5X      HAL2     0.900000E-01   1.00800           0
     13338 MEMB     100      POPC     H5Y      HAL2     0.900000E-01   1.00800           0
     13339 MEMB     100      POPC     C36      CTL2    -0.180000       12.0110           0
     13340 MEMB     100      POPC     H6X      HAL2     0.900000E-01   1.00800           0
     13341 MEMB     100      POPC     H6Y      HAL2     0.900000E-01   1.00800           0
     13342 MEMB     100      POPC     C37      CTL2    -0.180000       12.0110           0
     13343 MEMB     100      POPC     H7X      HAL2     0.900000E-01   1.00800           0
     13344 MEMB     100      POPC     H7Y      HAL2     0.900000E-01   1.00800           0
     13345 MEMB     100      POPC     C38      CTL2    -0.180000       12.0110           0
     13346 MEMB     100      POPC     H8X      HAL2     0.900000E-01   1.00800           0
     13347 MEMB     100      POPC     H8Y      HAL2     0.900000E-01   1.00800           0
     13348 MEMB     100      POPC     C39      CTL2    -0.180000       12.0110           0
     13349 MEMB     100      POPC     H9X      HAL2     0.900000E-01   1.00800           0
     13350 MEMB     100      POPC     H9Y      HAL2     0.900000E-01   1.00800           0
     13351 MEMB     100      POPC     C310     CTL2    -0.180000       12.0110           0
     13352 MEMB     100      POPC     H10X     HAL2     0.900000E-01   1.00800           0
     13353 MEMB     100      POPC     H10Y     HAL2     0.900000E-01   1.00800           0
     13354 MEMB     100      POPC     C311     CTL2    -0.180000       12.0110           0
     13355 MEMB     100      POPC     H11X     HAL2     0.900000E-01   1.00800           0
     13356 MEMB     100      POPC     H11Y     HAL2     0.900000E-01   1.00800           0
     13357 MEMB     100      POPC     C312     CTL2    -0.180000       12.0110           0
     13358 MEMB     100      POPC     H12X     HAL2     0.900000E-01   1.00800           0
     13359 MEMB     100      POPC     H12Y     HAL2     0.900000E-01   1.00800           0
     13360 MEMB     100      POPC     C313     CTL2    -0.180000       12.0110           0
     13361 MEMB     100      POPC     H13X     HAL2     0.900000E-01   1.00800           0
     13362 MEMB     100      POPC     H13Y     HAL2     0.900000E-01   1.00800           0
     13363 MEMB     100      POPC     C314     CTL2    -0.180000       12.0110           0
     13364 MEMB     100      POPC     H14X     HAL2     0.900000E-01   1.00800           0
     13365 MEMB     100      POPC     H14Y     HAL2     0.900000E-01   1.00800           0
     13366 MEMB     100      POPC     C315     CTL2    -0.180000       12.0110           0
     13367 MEMB     100      POPC     H15X     HAL2     0.900000E-01   1.00800           0
     13368 MEMB     100      POPC     H15Y     HAL2     0.900000E-01   1.00800           0
     13369 MEMB     100      POPC     C316     CTL3    -0.270000       12.0110           0
     13370 MEMB     100      POPC     H16X     HAL3     0.900000E-01   1.00800           0
     13371 MEMB     100      POPC     H16Y     HAL3     0.900000E-01   1.00800           0
     13372 MEMB     100      POPC     H16Z     HAL3     0.900000E-01   1.00800           0
     13373 MEMB     101      POPC     N        NTL     -0.600000       14.0070           0
     13374 MEMB     101      POPC     C12      CTL2    -0.100000       12.0110           0
     13375 MEMB     101      POPC     H12A     HL       0.250000       1.00800           0
     13376 MEMB     101      POPC     H12B     HL       0.250000       1.00800           0
     13377 MEMB     101      POPC     C13      CTL5    -0.350000       12.0110           0
     13378 MEMB     101      POPC     H13A     HL       0.250000       1.00800           0
     13379 MEMB     101      POPC     H13B     HL       0.250000       1.00800           0
     13380 MEMB     101      POPC     H13C     HL       0.250000       1.00800           0
     13381 MEMB     101      POPC     C14      CTL5    -0.350000       12.0110           0
     13382 MEMB     101      POPC     H14A     HL       0.250000       1.00800           0
     13383 MEMB     101      POPC     H14B     HL       0.250000       1.00800           0
     13384 MEMB     101      POPC     H14C     HL       0.250000       1.00800           0
     13385 MEMB     101      POPC     C15      CTL5    -0.350000       12.0110           0
     13386 MEMB     101      POPC     H15A     HL       0.250000       1.00800           0
     13387 MEMB     101      POPC     H15B     HL       0.250000       1.00800           0
     13388 MEMB     101      POPC     H15C     HL       0.250000       1.00800           0
     13389 MEMB     101      POPC     C11      CTL2    -0.800000E-01   12.0110           0
     13390 MEMB     101      POPC     H11A     HAL2     0.900000E-01   1.00800           0
     13391 MEMB     101      POPC     H11B     HAL2     0.900000E-01   1.00800           0
     13392 MEMB     101      POPC     P        PL       1.500000       30.9740           0
     13393 MEMB     101      POPC     O13      O2L     -0.780000       15.9994           0
     13394 MEMB     101      POPC     O14      O2L     -0.780000       15.9994           0
     13395 MEMB     101      POPC     O12      OSLP    -0.570000       15.9994           0
     13396 MEMB     101      POPC     O11      OSLP    -0.570000       15.9994           0
     13397 MEMB     101      POPC     C1       CTL2    -0.800000E-01   12.0110           0
     13398 MEMB     101      POPC     HA       HAL2     0.900000E-01   1.00800           0
     13399 MEMB     101      POPC     HB       HAL2     0.900000E-01   1.00800           0
     13400 MEMB     101      POPC     C2       CTL1     0.170000       12.0110           0
     13401 MEMB     101      POPC     HS       HAL1     0.900000E-01   1.00800           0
     13402 MEMB     101      POPC     O21      OSL     -0.490000       15.9994           0
     13403 MEMB     101      POPC     C21      CL       0.900000       12.0110           0
     13404 MEMB     101      POPC     O22      OBL     -0.630000       15.9994           0
     13405 MEMB     101      POPC     C22      CTL2    -0.220000       12.0110           0
     13406 MEMB     101      POPC     H2R      HAL2     0.900000E-01   1.00800           0
     13407 MEMB     101      POPC     H2S      HAL2     0.900000E-01   1.00800           0
     13408 MEMB     101      POPC     C3       CTL2     0.800000E-01   12.0110           0
     13409 MEMB     101      POPC     HX       HAL2     0.900000E-01   1.00800           0
     13410 MEMB     101      POPC     HY       HAL2     0.900000E-01   1.00800           0
     13411 MEMB     101      POPC     O31      OSL     -0.490000       15.9994           0
     13412 MEMB     101      POPC     C31      CL       0.900000       12.0110           0
     13413 MEMB     101      POPC     O32      OBL     -0.630000       15.9994           0
     13414 MEMB     101      POPC     C32      CTL2    -0.220000       12.0110           0
     13415 MEMB     101      POPC     H2X      HAL2     0.900000E-01   1.00800           0
     13416 MEMB     101      POPC     H2Y      HAL2     0.900000E-01   1.00800           0
     13417 MEMB     101      POPC     C23      CTL2    -0.180000       12.0110           0
     13418 MEMB     101      POPC     H3R      HAL2     0.900000E-01   1.00800           0
     13419 MEMB     101      POPC     H3S      HAL2     0.900000E-01   1.00800           0
     13420 MEMB     101      POPC     C24      CTL2    -0.180000       12.0110           0
     13421 MEMB     101      POPC     H4R      HAL2     0.900000E-01   1.00800           0
     13422 MEMB     101      POPC     H4S      HAL2     0.900000E-01   1.00800           0
     13423 MEMB     101      POPC     C25      CTL2    -0.180000       12.0110           0
     13424 MEMB     101      POPC     H5R      HAL2     0.900000E-01   1.00800           0
     13425 MEMB     101      POPC     H5S      HAL2     0.900000E-01   1.00800           0
     13426 MEMB     101      POPC     C26      CTL2    -0.180000       12.0110           0
     13427 MEMB     101      POPC     H6R      HAL2     0.900000E-01   1.00800           0
     13428 MEMB     101      POPC     H6S      HAL2     0.900000E-01   1.00800           0
     13429 MEMB     101      POPC     C27      CTL2    -0.180000       12.0110           0
     13430 MEMB     101      POPC     H7R      HAL2     0.900000E-01   1.00800           0
     13431 MEMB     101      POPC     H7S      HAL2     0.900000E-01   1.00800           0
     13432 MEMB     101      POPC     C28      CTL2    -0.180000       12.0110           0
     13433 MEMB     101      POPC     H8R      HAL2     0.900000E-01   1.00800           0
     13434 MEMB     101      POPC     H8S      HAL2     0.900000E-01   1.00800           0
     13435 MEMB     101      POPC     C29      CEL1    -0.150000       12.0110           0
     13436 MEMB     101      POPC     H91      HEL1     0.150000       1.00800           0
     13437 MEMB     101      POPC     C210     CEL1    -0.150000       12.0110           0
     13438 MEMB     101      POPC     H101     HEL1     0.150000       1.00800           0
     13439 MEMB     101      POPC     C211     CTL2    -0.180000       12.0110           0
     13440 MEMB     101      POPC     H11R     HAL2     0.900000E-01   1.00800           0
     13441 MEMB     101      POPC     H11S     HAL2     0.900000E-01   1.00800           0
     13442 MEMB     101      POPC     C212     CTL2    -0.180000       12.0110           0
     13443 MEMB     101      POPC     H12R     HAL2     0.900000E-01   1.00800           0
     13444 MEMB     101      POPC     H12S     HAL2     0.900000E-01   1.00800           0
     13445 MEMB     101      POPC     C213     CTL2    -0.180000       12.0110           0
     13446 MEMB     101      POPC     H13R     HAL2     0.900000E-01   1.00800           0
     13447 MEMB     101      POPC     H13S     HAL2     0.900000E-01   1.00800           0
     13448 MEMB     101      POPC     C214     CTL2    -0.180000       12.0110           0
     13449 MEMB     101      POPC     H14R     HAL2     0.900000E-01   1.00800           0
     13450 MEMB     101      POPC     H14S     HAL2     0.900000E-01   1.00800           0
     13451 MEMB     101      POPC     C215     CTL2    -0.180000       12.0110           0
     13452 MEMB     101      POPC     H15R     HAL2     0.900000E-01   1.00800           0
     13453 MEMB     101      POPC     H15S     HAL2     0.900000E-01   1.00800           0
     13454 MEMB     101      POPC     C216     CTL2    -0.180000       12.0110           0
     13455 MEMB     101      POPC     H16R     HAL2     0.900000E-01   1.00800           0
     13456 MEMB     101      POPC     H16S     HAL2     0.900000E-01   1.00800           0
     13457 MEMB     101      POPC     C217     CTL2    -0.180000       12.0110           0
     13458 MEMB     101      POPC     H17R     HAL2     0.900000E-01   1.00800           0
     13459 MEMB     101      POPC     H17S     HAL2     0.900000E-01   1.00800           0
     13460 MEMB     101      POPC     C218     CTL3    -0.270000       12.0110           0
     13461 MEMB     101      POPC     H18R     HAL3     0.900000E-01   1.00800           0
     13462 MEMB     101      POPC     H18S     HAL3     0.900000E-01   1.00800           0
     13463 MEMB     101      POPC     H18T     HAL3     0.900000E-01   1.00800           0
     13464 MEMB     101      POPC     C33      CTL2    -0.180000       12.0110           0
     13465 MEMB     101      POPC     H3X      HAL2     0.900000E-01   1.00800           0
     13466 MEMB     101      POPC     H3Y      HAL2     0.900000E-01   1.00800           0
     13467 MEMB     101      POPC     C34      CTL2    -0.180000       12.0110           0
     13468 MEMB     101      POPC     H4X      HAL2     0.900000E-01   1.00800           0
     13469 MEMB     101      POPC     H4Y      HAL2     0.900000E-01   1.00800           0
     13470 MEMB     101      POPC     C35      CTL2    -0.180000       12.0110           0
     13471 MEMB     101      POPC     H5X      HAL2     0.900000E-01   1.00800           0
     13472 MEMB     101      POPC     H5Y      HAL2     0.900000E-01   1.00800           0
     13473 MEMB     101      POPC     C36      CTL2    -0.180000       12.0110           0
     13474 MEMB     101      POPC     H6X      HAL2     0.900000E-01   1.00800           0
     13475 MEMB     101      POPC     H6Y      HAL2     0.900000E-01   1.00800           0
     13476 MEMB     101      POPC     C37      CTL2    -0.180000       12.0110           0
     13477 MEMB     101      POPC     H7X      HAL2     0.900000E-01   1.00800           0
     13478 MEMB     101      POPC     H7Y      HAL2     0.900000E-01   1.00800           0
     13479 MEMB     101      POPC     C38      CTL2    -0.180000       12.0110           0
     13480 MEMB     101      POPC     H8X      HAL2     0.900000E-01   1.00800           0
     13481 MEMB     101      POPC     H8Y      HAL2     0.900000E-01   1.00800           0
     13482 MEMB     101      POPC     C39      CTL2    -0.180000       12.0110           0
     13483 MEMB     101      POPC     H9X      HAL2     0.900000E-01   1.00800           0
     13484 MEMB     101      POPC     H9Y      HAL2     0.900000E-01   1.00800           0
     13485 MEMB     101      POPC     C310     CTL2    -0.180000       12.0110           0
     13486 MEMB     101      POPC     H10X     HAL2     0.900000E-01   1.00800           0
     13487 MEMB     101      POPC     H10Y     HAL2     0.900000E-01   1.00800           0
     13488 MEMB     101      POPC     C311     CTL2    -0.180000       12.0110           0
     13489 MEMB     101      POPC     H11X     HAL2     0.900000E-01   1.00800           0
     13490 MEMB     101      POPC     H11Y     HAL2     0.900000E-01   1.00800           0
     13491 MEMB     101      POPC     C312     CTL2    -0.180000       12.0110           0
     13492 MEMB     101      POPC     H12X     HAL2     0.900000E-01   1.00800           0
     13493 MEMB     101      POPC     H12Y     HAL2     0.900000E-01   1.00800           0
     13494 MEMB     101      POPC     C313     CTL2    -0.180000       12.0110           0
     13495 MEMB     101      POPC     H13X     HAL2     0.900000E-01   1.00800           0
     13496 MEMB     101      POPC     H13Y     HAL2     0.900000E-01   1.00800           0
     13497 MEMB     101      POPC     C314     CTL2    -0.180000       12.0110           0
     13498 MEMB     101      POPC     H14X     HAL2     0.900000E-01   1.00800           0
     13499 MEMB     101      POPC     H14Y     HAL2     0.900000E-01   1.00800           0
     13500 MEMB     101      POPC     C315     CTL2    -0.180000       12.0110           0
     13501 MEMB     101      POPC     H15X     HAL2     0.900000E-01   1.00800           0
     13502 MEMB     101      POPC     H15Y     HAL2     0.900000E-01   1.00800           0
     13503 MEMB     101      POPC     C316     CTL3    -0.270000       12.0110           0
     13504 MEMB     101      POPC     H16X     HAL3     0.900000E-01   1.00800           0
     13505 MEMB     101      POPC     H16Y     HAL3     0.900000E-01   1.00800           0
     13506 MEMB     101      POPC     H16Z     HAL3     0.900000E-01   1.00800           0
     13507 MEMB     102      POPC     N        NTL     -0.600000       14.0070           0
     13508 MEMB     102      POPC     C12      CTL2    -0.100000       12.0110           0
     13509 MEMB     102      POPC     H12A     HL       0.250000       1.00800           0
     13510 MEMB     102      POPC     H12B     HL       0.250000       1.00800           0
     13511 MEMB     102      POPC     C13      CTL5    -0.350000       12.0110           0
     13512 MEMB     102      POPC     H13A     HL       0.250000       1.00800           0
     13513 MEMB     102      POPC     H13B     HL       0.250000       1.00800           0
     13514 MEMB     102      POPC     H13C     HL       0.250000       1.00800           0
     13515 MEMB     102      POPC     C14      CTL5    -0.350000       12.0110           0
     13516 MEMB     102      POPC     H14A     HL       0.250000       1.00800           0
     13517 MEMB     102      POPC     H14B     HL       0.250000       1.00800           0
     13518 MEMB     102      POPC     H14C     HL       0.250000       1.00800           0
     13519 MEMB     102      POPC     C15      CTL5    -0.350000       12.0110           0
     13520 MEMB     102      POPC     H15A     HL       0.250000       1.00800           0
     13521 MEMB     102      POPC     H15B     HL       0.250000       1.00800           0
     13522 MEMB     102      POPC     H15C     HL       0.250000       1.00800           0
     13523 MEMB     102      POPC     C11      CTL2    -0.800000E-01   12.0110           0
     13524 MEMB     102      POPC     H11A     HAL2     0.900000E-01   1.00800           0
     13525 MEMB     102      POPC     H11B     HAL2     0.900000E-01   1.00800           0
     13526 MEMB     102      POPC     P        PL       1.500000       30.9740           0
     13527 MEMB     102      POPC     O13      O2L     -0.780000       15.9994           0
     13528 MEMB     102      POPC     O14      O2L     -0.780000       15.9994           0
     13529 MEMB     102      POPC     O12      OSLP    -0.570000       15.9994           0
     13530 MEMB     102      POPC     O11      OSLP    -0.570000       15.9994           0
     13531 MEMB     102      POPC     C1       CTL2    -0.800000E-01   12.0110           0
     13532 MEMB     102      POPC     HA       HAL2     0.900000E-01   1.00800           0
     13533 MEMB     102      POPC     HB       HAL2     0.900000E-01   1.00800           0
     13534 MEMB     102      POPC     C2       CTL1     0.170000       12.0110           0
     13535 MEMB     102      POPC     HS       HAL1     0.900000E-01   1.00800           0
     13536 MEMB     102      POPC     O21      OSL     -0.490000       15.9994           0
     13537 MEMB     102      POPC     C21      CL       0.900000       12.0110           0
     13538 MEMB     102      POPC     O22      OBL     -0.630000       15.9994           0
     13539 MEMB     102      POPC     C22      CTL2    -0.220000       12.0110           0
     13540 MEMB     102      POPC     H2R      HAL2     0.900000E-01   1.00800           0
     13541 MEMB     102      POPC     H2S      HAL2     0.900000E-01   1.00800           0
     13542 MEMB     102      POPC     C3       CTL2     0.800000E-01   12.0110           0
     13543 MEMB     102      POPC     HX       HAL2     0.900000E-01   1.00800           0
     13544 MEMB     102      POPC     HY       HAL2     0.900000E-01   1.00800           0
     13545 MEMB     102      POPC     O31      OSL     -0.490000       15.9994           0
     13546 MEMB     102      POPC     C31      CL       0.900000       12.0110           0
     13547 MEMB     102      POPC     O32      OBL     -0.630000       15.9994           0
     13548 MEMB     102      POPC     C32      CTL2    -0.220000       12.0110           0
     13549 MEMB     102      POPC     H2X      HAL2     0.900000E-01   1.00800           0
     13550 MEMB     102      POPC     H2Y      HAL2     0.900000E-01   1.00800           0
     13551 MEMB     102      POPC     C23      CTL2    -0.180000       12.0110           0
     13552 MEMB     102      POPC     H3R      HAL2     0.900000E-01   1.00800           0
     13553 MEMB     102      POPC     H3S      HAL2     0.900000E-01   1.00800           0
     13554 MEMB     102      POPC     C24      CTL2    -0.180000       12.0110           0
     13555 MEMB     102      POPC     H4R      HAL2     0.900000E-01   1.00800           0
     13556 MEMB     102      POPC     H4S      HAL2     0.900000E-01   1.00800           0
     13557 MEMB     102      POPC     C25      CTL2    -0.180000       12.0110           0
     13558 MEMB     102      POPC     H5R      HAL2     0.900000E-01   1.00800           0
     13559 MEMB     102      POPC     H5S      HAL2     0.900000E-01   1.00800           0
     13560 MEMB     102      POPC     C26      CTL2    -0.180000       12.0110           0
     13561 MEMB     102      POPC     H6R      HAL2     0.900000E-01   1.00800           0
     13562 MEMB     102      POPC     H6S      HAL2     0.900000E-01   1.00800           0
     13563 MEMB     102      POPC     C27      CTL2    -0.180000       12.0110           0
     13564 MEMB     102      POPC     H7R      HAL2     0.900000E-01   1.00800           0
     13565 MEMB     102      POPC     H7S      HAL2     0.900000E-01   1.00800           0
     13566 MEMB     102      POPC     C28      CTL2    -0.180000       12.0110           0
     13567 MEMB     102      POPC     H8R      HAL2     0.900000E-01   1.00800           0
     13568 MEMB     102      POPC     H8S      HAL2     0.900000E-01   1.00800           0
     13569 MEMB     102      POPC     C29      CEL1    -0.150000       12.0110           0
     13570 MEMB     102      POPC     H91      HEL1     0.150000       1.00800           0
     13571 MEMB     102      POPC     C210     CEL1    -0.150000       12.0110           0
     13572 MEMB     102      POPC     H101     HEL1     0.150000       1.00800           0
     13573 MEMB     102      POPC     C211     CTL2    -0.180000       12.0110           0
     13574 MEMB     102      POPC     H11R     HAL2     0.900000E-01   1.00800           0
     13575 MEMB     102      POPC     H11S     HAL2     0.900000E-01   1.00800           0
     13576 MEMB     102      POPC     C212     CTL2    -0.180000       12.0110           0
     13577 MEMB     102      POPC     H12R     HAL2     0.900000E-01   1.00800           0
     13578 MEMB     102      POPC     H12S     HAL2     0.900000E-01   1.00800           0
     13579 MEMB     102      POPC     C213     CTL2    -0.180000       12.0110           0
     13580 MEMB     102      POPC     H13R     HAL2     0.900000E-01   1.00800           0
     13581 MEMB     102      POPC     H13S     HAL2     0.900000E-01   1.00800           0
     13582 MEMB     102      POPC     C214     CTL2    -0.180000       12.0110           0
     13583 MEMB     102      POPC     H14R     HAL2     0.900000E-01   1.00800           0
     13584 MEMB     102      POPC     H14S     HAL2     0.900000E-01   1.00800           0
     13585 MEMB     102      POPC     C215     CTL2    -0.180000       12.0110           0
     13586 MEMB     102      POPC     H15R     HAL2     0.900000E-01   1.00800           0
     13587 MEMB     102      POPC     H15S     HAL2     0.900000E-01   1.00800           0
     13588 MEMB     102      POPC     C216     CTL2    -0.180000       12.0110           0
     13589 MEMB     102      POPC     H16R     HAL2     0.900000E-01   1.00800           0
     13590 MEMB     102      POPC     H16S     HAL2     0.900000E-01   1.00800           0
     13591 MEMB     102      POPC     C217     CTL2    -0.180000       12.0110           0
     13592 MEMB     102      POPC     H17R     HAL2     0.900000E-01   1.00800           0
     13593 MEMB     102      POPC     H17S     HAL2     0.900000E-01   1.00800           0
     13594 MEMB     102      POPC     C218     CTL3    -0.270000       12.0110           0
     13595 MEMB     102      POPC     H18R     HAL3     0.900000E-01   1.00800           0
     13596 MEMB     102      POPC     H18S     HAL3     0.900000E-01   1.00800           0
     13597 MEMB     102      POPC     H18T     HAL3     0.900000E-01   1.00800           0
     13598 MEMB     102      POPC     C33      CTL2    -0.180000       12.0110           0
     13599 MEMB     102      POPC     H3X      HAL2     0.900000E-01   1.00800           0
     13600 MEMB     102      POPC     H3Y      HAL2     0.900000E-01   1.00800           0
     13601 MEMB     102      POPC     C34      CTL2    -0.180000       12.0110           0
     13602 MEMB     102      POPC     H4X      HAL2     0.900000E-01   1.00800           0
     13603 MEMB     102      POPC     H4Y      HAL2     0.900000E-01   1.00800           0
     13604 MEMB     102      POPC     C35      CTL2    -0.180000       12.0110           0
     13605 MEMB     102      POPC     H5X      HAL2     0.900000E-01   1.00800           0
     13606 MEMB     102      POPC     H5Y      HAL2     0.900000E-01   1.00800           0
     13607 MEMB     102      POPC     C36      CTL2    -0.180000       12.0110           0
     13608 MEMB     102      POPC     H6X      HAL2     0.900000E-01   1.00800           0
     13609 MEMB     102      POPC     H6Y      HAL2     0.900000E-01   1.00800           0
     13610 MEMB     102      POPC     C37      CTL2    -0.180000       12.0110           0
     13611 MEMB     102      POPC     H7X      HAL2     0.900000E-01   1.00800           0
     13612 MEMB     102      POPC     H7Y      HAL2     0.900000E-01   1.00800           0
     13613 MEMB     102      POPC     C38      CTL2    -0.180000       12.0110           0
     13614 MEMB     102      POPC     H8X      HAL2     0.900000E-01   1.00800           0
     13615 MEMB     102      POPC     H8Y      HAL2     0.900000E-01   1.00800           0
     13616 MEMB     102      POPC     C39      CTL2    -0.180000       12.0110           0
     13617 MEMB     102      POPC     H9X      HAL2     0.900000E-01   1.00800           0
     13618 MEMB     102      POPC     H9Y      HAL2     0.900000E-01   1.00800           0
     13619 MEMB     102      POPC     C310     CTL2    -0.180000       12.0110           0
     13620 MEMB     102      POPC     H10X     HAL2     0.900000E-01   1.00800           0
     13621 MEMB     102      POPC     H10Y     HAL2     0.900000E-01   1.00800           0
     13622 MEMB     102      POPC     C311     CTL2    -0.180000       12.0110           0
     13623 MEMB     102      POPC     H11X     HAL2     0.900000E-01   1.00800           0
     13624 MEMB     102      POPC     H11Y     HAL2     0.900000E-01   1.00800           0
     13625 MEMB     102      POPC     C312     CTL2    -0.180000       12.0110           0
     13626 MEMB     102      POPC     H12X     HAL2     0.900000E-01   1.00800           0
     13627 MEMB     102      POPC     H12Y     HAL2     0.900000E-01   1.00800           0
     13628 MEMB     102      POPC     C313     CTL2    -0.180000       12.0110           0
     13629 MEMB     102      POPC     H13X     HAL2     0.900000E-01   1.00800           0
     13630 MEMB     102      POPC     H13Y     HAL2     0.900000E-01   1.00800           0
     13631 MEMB     102      POPC     C314     CTL2    -0.180000       12.0110           0
     13632 MEMB     102      POPC     H14X     HAL2     0.900000E-01   1.00800           0
     13633 MEMB     102      POPC     H14Y     HAL2     0.900000E-01   1.00800           0
     13634 MEMB     102      POPC     C315     CTL2    -0.180000       12.0110           0
     13635 MEMB     102      POPC     H15X     HAL2     0.900000E-01   1.00800           0
     13636 MEMB     102      POPC     H15Y     HAL2     0.900000E-01   1.00800           0
     13637 MEMB     102      POPC     C316     CTL3    -0.270000       12.0110           0
     13638 MEMB     102      POPC     H16X     HAL3     0.900000E-01   1.00800           0
     13639 MEMB     102      POPC     H16Y     HAL3     0.900000E-01   1.00800           0
     13640 MEMB     102      POPC     H16Z     HAL3     0.900000E-01   1.00800           0
     13641 MEMB     103      POPS     N        NH3L    -0.300000       14.0070           0
     13642 MEMB     103      POPS     HN1      HCL      0.330000       1.00800           0
     13643 MEMB     103      POPS     HN2      HCL      0.330000       1.00800           0
     13644 MEMB     103      POPS     HN3      HCL      0.330000       1.00800           0
     13645 MEMB     103      POPS     C12      CTL1     0.210000       12.0110           0
     13646 MEMB     103      POPS     H12A     HBL      0.100000       1.00800           0
     13647 MEMB     103      POPS     C13      CCL      0.340000       12.0110           0
     13648 MEMB     103      POPS     O13A     OCL     -0.670000       15.9994           0
     13649 MEMB     103      POPS     O13B     OCL     -0.670000       15.9994           0
     13650 MEMB     103      POPS     C11      CTL2    -0.800000E-01   12.0110           0
     13651 MEMB     103      POPS     H11A     HAL2     0.900000E-01   1.00800           0
     13652 MEMB     103      POPS     H11B     HAL2     0.900000E-01   1.00800           0
     13653 MEMB     103      POPS     P        PL       1.500000       30.9740           0
     13654 MEMB     103      POPS     O13      O2L     -0.780000       15.9994           0
     13655 MEMB     103      POPS     O14      O2L     -0.780000       15.9994           0
     13656 MEMB     103      POPS     O12      OSLP    -0.570000       15.9994           0
     13657 MEMB     103      POPS     O11      OSLP    -0.570000       15.9994           0
     13658 MEMB     103      POPS     C1       CTL2    -0.800000E-01   12.0110           0
     13659 MEMB     103      POPS     HA       HAL2     0.900000E-01   1.00800           0
     13660 MEMB     103      POPS     HB       HAL2     0.900000E-01   1.00800           0
     13661 MEMB     103      POPS     C2       CTL1     0.170000       12.0110           0
     13662 MEMB     103      POPS     HS       HAL1     0.900000E-01   1.00800           0
     13663 MEMB     103      POPS     O21      OSL     -0.490000       15.9994           0
     13664 MEMB     103      POPS     C21      CL       0.900000       12.0110           0
     13665 MEMB     103      POPS     O22      OBL     -0.630000       15.9994           0
     13666 MEMB     103      POPS     C22      CTL2    -0.220000       12.0110           0
     13667 MEMB     103      POPS     H2R      HAL2     0.900000E-01   1.00800           0
     13668 MEMB     103      POPS     H2S      HAL2     0.900000E-01   1.00800           0
     13669 MEMB     103      POPS     C3       CTL2     0.800000E-01   12.0110           0
     13670 MEMB     103      POPS     HX       HAL2     0.900000E-01   1.00800           0
     13671 MEMB     103      POPS     HY       HAL2     0.900000E-01   1.00800           0
     13672 MEMB     103      POPS     O31      OSL     -0.490000       15.9994           0
     13673 MEMB     103      POPS     C31      CL       0.900000       12.0110           0
     13674 MEMB     103      POPS     O32      OBL     -0.630000       15.9994           0
     13675 MEMB     103      POPS     C32      CTL2    -0.220000       12.0110           0
     13676 MEMB     103      POPS     H2X      HAL2     0.900000E-01   1.00800           0
     13677 MEMB     103      POPS     H2Y      HAL2     0.900000E-01   1.00800           0
     13678 MEMB     103      POPS     C23      CTL2    -0.180000       12.0110           0
     13679 MEMB     103      POPS     H3R      HAL2     0.900000E-01   1.00800           0
     13680 MEMB     103      POPS     H3S      HAL2     0.900000E-01   1.00800           0
     13681 MEMB     103      POPS     C24      CTL2    -0.180000       12.0110           0
     13682 MEMB     103      POPS     H4R      HAL2     0.900000E-01   1.00800           0
     13683 MEMB     103      POPS     H4S      HAL2     0.900000E-01   1.00800           0
     13684 MEMB     103      POPS     C25      CTL2    -0.180000       12.0110           0
     13685 MEMB     103      POPS     H5R      HAL2     0.900000E-01   1.00800           0
     13686 MEMB     103      POPS     H5S      HAL2     0.900000E-01   1.00800           0
     13687 MEMB     103      POPS     C26      CTL2    -0.180000       12.0110           0
     13688 MEMB     103      POPS     H6R      HAL2     0.900000E-01   1.00800           0
     13689 MEMB     103      POPS     H6S      HAL2     0.900000E-01   1.00800           0
     13690 MEMB     103      POPS     C27      CTL2    -0.180000       12.0110           0
     13691 MEMB     103      POPS     H7R      HAL2     0.900000E-01   1.00800           0
     13692 MEMB     103      POPS     H7S      HAL2     0.900000E-01   1.00800           0
     13693 MEMB     103      POPS     C28      CTL2    -0.180000       12.0110           0
     13694 MEMB     103      POPS     H8R      HAL2     0.900000E-01   1.00800           0
     13695 MEMB     103      POPS     H8S      HAL2     0.900000E-01   1.00800           0
     13696 MEMB     103      POPS     C29      CEL1    -0.150000       12.0110           0
     13697 MEMB     103      POPS     H91      HEL1     0.150000       1.00800           0
     13698 MEMB     103      POPS     C210     CEL1    -0.150000       12.0110           0
     13699 MEMB     103      POPS     H101     HEL1     0.150000       1.00800           0
     13700 MEMB     103      POPS     C211     CTL2    -0.180000       12.0110           0
     13701 MEMB     103      POPS     H11R     HAL2     0.900000E-01   1.00800           0
     13702 MEMB     103      POPS     H11S     HAL2     0.900000E-01   1.00800           0
     13703 MEMB     103      POPS     C212     CTL2    -0.180000       12.0110           0
     13704 MEMB     103      POPS     H12R     HAL2     0.900000E-01   1.00800           0
     13705 MEMB     103      POPS     H12S     HAL2     0.900000E-01   1.00800           0
     13706 MEMB     103      POPS     C213     CTL2    -0.180000       12.0110           0
     13707 MEMB     103      POPS     H13R     HAL2     0.900000E-01   1.00800           0
     13708 MEMB     103      POPS     H13S     HAL2     0.900000E-01   1.00800           0
     13709 MEMB     103      POPS     C214     CTL2    -0.180000       12.0110           0
     13710 MEMB     103      POPS     H14R     HAL2     0.900000E-01   1.00800           0
     13711 MEMB     103      POPS     H14S     HAL2     0.900000E-01   1.00800           0
     13712 MEMB     103      POPS     C215     CTL2    -0.180000       12.0110           0
     13713 MEMB     103      POPS     H15R     HAL2     0.900000E-01   1.00800           0
     13714 MEMB     103      POPS     H15S     HAL2     0.900000E-01   1.00800           0
     13715 MEMB     103      POPS     C216     CTL2    -0.180000       12.0110           0
     13716 MEMB     103      POPS     H16R     HAL2     0.900000E-01   1.00800           0
     13717 MEMB     103      POPS     H16S     HAL2     0.900000E-01   1.00800           0
     13718 MEMB     103      POPS     C217     CTL2    -0.180000       12.0110           0
     13719 MEMB     103      POPS     H17R     HAL2     0.900000E-01   1.00800           0
     13720 MEMB     103      POPS     H17S     HAL2     0.900000E-01   1.00800           0
     13721 MEMB     103      POPS     C218     CTL3    -0.270000       12.0110           0
     13722 MEMB     103      POPS     H18R     HAL3     0.900000E-01   1.00800           0
     13723 MEMB     103      POPS     H18S     HAL3     0.900000E-01   1.00800           0
     13724 MEMB     103      POPS     H18T     HAL3     0.900000E-01   1.00800           0
     13725 MEMB     103      POPS     C33      CTL2    -0.180000       12.0110           0
     13726 MEMB     103      POPS     H3X      HAL2     0.900000E-01   1.00800           0
     13727 MEMB     103      POPS     H3Y      HAL2     0.900000E-01   1.00800           0
     13728 MEMB     103      POPS     C34      CTL2    -0.180000       12.0110           0
     13729 MEMB     103      POPS     H4X      HAL2     0.900000E-01   1.00800           0
     13730 MEMB     103      POPS     H4Y      HAL2     0.900000E-01   1.00800           0
     13731 MEMB     103      POPS     C35      CTL2    -0.180000       12.0110           0
     13732 MEMB     103      POPS     H5X      HAL2     0.900000E-01   1.00800           0
     13733 MEMB     103      POPS     H5Y      HAL2     0.900000E-01   1.00800           0
     13734 MEMB     103      POPS     C36      CTL2    -0.180000       12.0110           0
     13735 MEMB     103      POPS     H6X      HAL2     0.900000E-01   1.00800           0
     13736 MEMB     103      POPS     H6Y      HAL2     0.900000E-01   1.00800           0
     13737 MEMB     103      POPS     C37      CTL2    -0.180000       12.0110           0
     13738 MEMB     103      POPS     H7X      HAL2     0.900000E-01   1.00800           0
     13739 MEMB     103      POPS     H7Y      HAL2     0.900000E-01   1.00800           0
     13740 MEMB     103      POPS     C38      CTL2    -0.180000       12.0110           0
     13741 MEMB     103      POPS     H8X      HAL2     0.900000E-01   1.00800           0
     13742 MEMB     103      POPS     H8Y      HAL2     0.900000E-01   1.00800           0
     13743 MEMB     103      POPS     C39      CTL2    -0.180000       12.0110           0
     13744 MEMB     103      POPS     H9X      HAL2     0.900000E-01   1.00800           0
     13745 MEMB     103      POPS     H9Y      HAL2     0.900000E-01   1.00800           0
     13746 MEMB     103      POPS     C310     CTL2    -0.180000       12.0110           0
     13747 MEMB     103      POPS     H10X     HAL2     0.900000E-01   1.00800           0
     13748 MEMB     103      POPS     H10Y     HAL2     0.900000E-01   1.00800           0
     13749 MEMB     103      POPS     C311     CTL2    -0.180000       12.0110           0
     13750 MEMB     103      POPS     H11X     HAL2     0.900000E-01   1.00800           0
     13751 MEMB     103      POPS     H11Y     HAL2     0.900000E-01   1.00800           0
     13752 MEMB     103      POPS     C312     CTL2    -0.180000       12.0110           0
     13753 MEMB     103      POPS     H12X     HAL2     0.900000E-01   1.00800           0
     13754 MEMB     103      POPS     H12Y     HAL2     0.900000E-01   1.00800           0
     13755 MEMB     103      POPS     C313     CTL2    -0.180000       12.0110           0
     13756 MEMB     103      POPS     H13X     HAL2     0.900000E-01   1.00800           0
     13757 MEMB     103      POPS     H13Y     HAL2     0.900000E-01   1.00800           0
     13758 MEMB     103      POPS     C314     CTL2    -0.180000       12.0110           0
     13759 MEMB     103      POPS     H14X     HAL2     0.900000E-01   1.00800           0
     13760 MEMB     103      POPS     H14Y     HAL2     0.900000E-01   1.00800           0
     13761 MEMB     103      POPS     C315     CTL2    -0.180000       12.0110           0
     13762 MEMB     103      POPS     H15X     HAL2     0.900000E-01   1.00800           0
     13763 MEMB     103      POPS     H15Y     HAL2     0.900000E-01   1.00800           0
     13764 MEMB     103      POPS     C316     CTL3    -0.270000       12.0110           0
     13765 MEMB     103      POPS     H16X     HAL3     0.900000E-01   1.00800           0
     13766 MEMB     103      POPS     H16Y     HAL3     0.900000E-01   1.00800           0
     13767 MEMB     103      POPS     H16Z     HAL3     0.900000E-01   1.00800           0
     13768 MEMB     104      POPC     N        NTL     -0.600000       14.0070           0
     13769 MEMB     104      POPC     C12      CTL2    -0.100000       12.0110           0
     13770 MEMB     104      POPC     H12A     HL       0.250000       1.00800           0
     13771 MEMB     104      POPC     H12B     HL       0.250000       1.00800           0
     13772 MEMB     104      POPC     C13      CTL5    -0.350000       12.0110           0
     13773 MEMB     104      POPC     H13A     HL       0.250000       1.00800           0
     13774 MEMB     104      POPC     H13B     HL       0.250000       1.00800           0
     13775 MEMB     104      POPC     H13C     HL       0.250000       1.00800           0
     13776 MEMB     104      POPC     C14      CTL5    -0.350000       12.0110           0
     13777 MEMB     104      POPC     H14A     HL       0.250000       1.00800           0
     13778 MEMB     104      POPC     H14B     HL       0.250000       1.00800           0
     13779 MEMB     104      POPC     H14C     HL       0.250000       1.00800           0
     13780 MEMB     104      POPC     C15      CTL5    -0.350000       12.0110           0
     13781 MEMB     104      POPC     H15A     HL       0.250000       1.00800           0
     13782 MEMB     104      POPC     H15B     HL       0.250000       1.00800           0
     13783 MEMB     104      POPC     H15C     HL       0.250000       1.00800           0
     13784 MEMB     104      POPC     C11      CTL2    -0.800000E-01   12.0110           0
     13785 MEMB     104      POPC     H11A     HAL2     0.900000E-01   1.00800           0
     13786 MEMB     104      POPC     H11B     HAL2     0.900000E-01   1.00800           0
     13787 MEMB     104      POPC     P        PL       1.500000       30.9740           0
     13788 MEMB     104      POPC     O13      O2L     -0.780000       15.9994           0
     13789 MEMB     104      POPC     O14      O2L     -0.780000       15.9994           0
     13790 MEMB     104      POPC     O12      OSLP    -0.570000       15.9994           0
     13791 MEMB     104      POPC     O11      OSLP    -0.570000       15.9994           0
     13792 MEMB     104      POPC     C1       CTL2    -0.800000E-01   12.0110           0
     13793 MEMB     104      POPC     HA       HAL2     0.900000E-01   1.00800           0
     13794 MEMB     104      POPC     HB       HAL2     0.900000E-01   1.00800           0
     13795 MEMB     104      POPC     C2       CTL1     0.170000       12.0110           0
     13796 MEMB     104      POPC     HS       HAL1     0.900000E-01   1.00800           0
     13797 MEMB     104      POPC     O21      OSL     -0.490000       15.9994           0
     13798 MEMB     104      POPC     C21      CL       0.900000       12.0110           0
     13799 MEMB     104      POPC     O22      OBL     -0.630000       15.9994           0
     13800 MEMB     104      POPC     C22      CTL2    -0.220000       12.0110           0
     13801 MEMB     104      POPC     H2R      HAL2     0.900000E-01   1.00800           0
     13802 MEMB     104      POPC     H2S      HAL2     0.900000E-01   1.00800           0
     13803 MEMB     104      POPC     C3       CTL2     0.800000E-01   12.0110           0
     13804 MEMB     104      POPC     HX       HAL2     0.900000E-01   1.00800           0
     13805 MEMB     104      POPC     HY       HAL2     0.900000E-01   1.00800           0
     13806 MEMB     104      POPC     O31      OSL     -0.490000       15.9994           0
     13807 MEMB     104      POPC     C31      CL       0.900000       12.0110           0
     13808 MEMB     104      POPC     O32      OBL     -0.630000       15.9994           0
     13809 MEMB     104      POPC     C32      CTL2    -0.220000       12.0110           0
     13810 MEMB     104      POPC     H2X      HAL2     0.900000E-01   1.00800           0
     13811 MEMB     104      POPC     H2Y      HAL2     0.900000E-01   1.00800           0
     13812 MEMB     104      POPC     C23      CTL2    -0.180000       12.0110           0
     13813 MEMB     104      POPC     H3R      HAL2     0.900000E-01   1.00800           0
     13814 MEMB     104      POPC     H3S      HAL2     0.900000E-01   1.00800           0
     13815 MEMB     104      POPC     C24      CTL2    -0.180000       12.0110           0
     13816 MEMB     104      POPC     H4R      HAL2     0.900000E-01   1.00800           0
     13817 MEMB     104      POPC     H4S      HAL2     0.900000E-01   1.00800           0
     13818 MEMB     104      POPC     C25      CTL2    -0.180000       12.0110           0
     13819 MEMB     104      POPC     H5R      HAL2     0.900000E-01   1.00800           0
     13820 MEMB     104      POPC     H5S      HAL2     0.900000E-01   1.00800           0
     13821 MEMB     104      POPC     C26      CTL2    -0.180000       12.0110           0
     13822 MEMB     104      POPC     H6R      HAL2     0.900000E-01   1.00800           0
     13823 MEMB     104      POPC     H6S      HAL2     0.900000E-01   1.00800           0
     13824 MEMB     104      POPC     C27      CTL2    -0.180000       12.0110           0
     13825 MEMB     104      POPC     H7R      HAL2     0.900000E-01   1.00800           0
     13826 MEMB     104      POPC     H7S      HAL2     0.900000E-01   1.00800           0
     13827 MEMB     104      POPC     C28      CTL2    -0.180000       12.0110           0
     13828 MEMB     104      POPC     H8R      HAL2     0.900000E-01   1.00800           0
     13829 MEMB     104      POPC     H8S      HAL2     0.900000E-01   1.00800           0
     13830 MEMB     104      POPC     C29      CEL1    -0.150000       12.0110           0
     13831 MEMB     104      POPC     H91      HEL1     0.150000       1.00800           0
     13832 MEMB     104      POPC     C210     CEL1    -0.150000       12.0110           0
     13833 MEMB     104      POPC     H101     HEL1     0.150000       1.00800           0
     13834 MEMB     104      POPC     C211     CTL2    -0.180000       12.0110           0
     13835 MEMB     104      POPC     H11R     HAL2     0.900000E-01   1.00800           0
     13836 MEMB     104      POPC     H11S     HAL2     0.900000E-01   1.00800           0
     13837 MEMB     104      POPC     C212     CTL2    -0.180000       12.0110           0
     13838 MEMB     104      POPC     H12R     HAL2     0.900000E-01   1.00800           0
     13839 MEMB     104      POPC     H12S     HAL2     0.900000E-01   1.00800           0
     13840 MEMB     104      POPC     C213     CTL2    -0.180000       12.0110           0
     13841 MEMB     104      POPC     H13R     HAL2     0.900000E-01   1.00800           0
     13842 MEMB     104      POPC     H13S     HAL2     0.900000E-01   1.00800           0
     13843 MEMB     104      POPC     C214     CTL2    -0.180000       12.0110           0
     13844 MEMB     104      POPC     H14R     HAL2     0.900000E-01   1.00800           0
     13845 MEMB     104      POPC     H14S     HAL2     0.900000E-01   1.00800           0
     13846 MEMB     104      POPC     C215     CTL2    -0.180000       12.0110           0
     13847 MEMB     104      POPC     H15R     HAL2     0.900000E-01   1.00800           0
     13848 MEMB     104      POPC     H15S     HAL2     0.900000E-01   1.00800           0
     13849 MEMB     104      POPC     C216     CTL2    -0.180000       12.0110           0
     13850 MEMB     104      POPC     H16R     HAL2     0.900000E-01   1.00800           0
     13851 MEMB     104      POPC     H16S     HAL2     0.900000E-01   1.00800           0
     13852 MEMB     104      POPC     C217     CTL2    -0.180000       12.0110           0
     13853 MEMB     104      POPC     H17R     HAL2     0.900000E-01   1.00800           0
     13854 MEMB     104      POPC     H17S     HAL2     0.900000E-01   1.00800           0
     13855 MEMB     104      POPC     C218     CTL3    -0.270000       12.0110           0
     13856 MEMB     104      POPC     H18R     HAL3     0.900000E-01   1.00800           0
     13857 MEMB     104      POPC     H18S     HAL3     0.900000E-01   1.00800           0
     13858 MEMB     104      POPC     H18T     HAL3     0.900000E-01   1.00800           0
     13859 MEMB     104      POPC     C33      CTL2    -0.180000       12.0110           0
     13860 MEMB     104      POPC     H3X      HAL2     0.900000E-01   1.00800           0
     13861 MEMB     104      POPC     H3Y      HAL2     0.900000E-01   1.00800           0
     13862 MEMB     104      POPC     C34      CTL2    -0.180000       12.0110           0
     13863 MEMB     104      POPC     H4X      HAL2     0.900000E-01   1.00800           0
     13864 MEMB     104      POPC     H4Y      HAL2     0.900000E-01   1.00800           0
     13865 MEMB     104      POPC     C35      CTL2    -0.180000       12.0110           0
     13866 MEMB     104      POPC     H5X      HAL2     0.900000E-01   1.00800           0
     13867 MEMB     104      POPC     H5Y      HAL2     0.900000E-01   1.00800           0
     13868 MEMB     104      POPC     C36      CTL2    -0.180000       12.0110           0
     13869 MEMB     104      POPC     H6X      HAL2     0.900000E-01   1.00800           0
     13870 MEMB     104      POPC     H6Y      HAL2     0.900000E-01   1.00800           0
     13871 MEMB     104      POPC     C37      CTL2    -0.180000       12.0110           0
     13872 MEMB     104      POPC     H7X      HAL2     0.900000E-01   1.00800           0
     13873 MEMB     104      POPC     H7Y      HAL2     0.900000E-01   1.00800           0
     13874 MEMB     104      POPC     C38      CTL2    -0.180000       12.0110           0
     13875 MEMB     104      POPC     H8X      HAL2     0.900000E-01   1.00800           0
     13876 MEMB     104      POPC     H8Y      HAL2     0.900000E-01   1.00800           0
     13877 MEMB     104      POPC     C39      CTL2    -0.180000       12.0110           0
     13878 MEMB     104      POPC     H9X      HAL2     0.900000E-01   1.00800           0
     13879 MEMB     104      POPC     H9Y      HAL2     0.900000E-01   1.00800           0
     13880 MEMB     104      POPC     C310     CTL2    -0.180000       12.0110           0
     13881 MEMB     104      POPC     H10X     HAL2     0.900000E-01   1.00800           0
     13882 MEMB     104      POPC     H10Y     HAL2     0.900000E-01   1.00800           0
     13883 MEMB     104      POPC     C311     CTL2    -0.180000       12.0110           0
     13884 MEMB     104      POPC     H11X     HAL2     0.900000E-01   1.00800           0
     13885 MEMB     104      POPC     H11Y     HAL2     0.900000E-01   1.00800           0
     13886 MEMB     104      POPC     C312     CTL2    -0.180000       12.0110           0
     13887 MEMB     104      POPC     H12X     HAL2     0.900000E-01   1.00800           0
     13888 MEMB     104      POPC     H12Y     HAL2     0.900000E-01   1.00800           0
     13889 MEMB     104      POPC     C313     CTL2    -0.180000       12.0110           0
     13890 MEMB     104      POPC     H13X     HAL2     0.900000E-01   1.00800           0
     13891 MEMB     104      POPC     H13Y     HAL2     0.900000E-01   1.00800           0
     13892 MEMB     104      POPC     C314     CTL2    -0.180000       12.0110           0
     13893 MEMB     104      POPC     H14X     HAL2     0.900000E-01   1.00800           0
     13894 MEMB     104      POPC     H14Y     HAL2     0.900000E-01   1.00800           0
     13895 MEMB     104      POPC     C315     CTL2    -0.180000       12.0110           0
     13896 MEMB     104      POPC     H15X     HAL2     0.900000E-01   1.00800           0
     13897 MEMB     104      POPC     H15Y     HAL2     0.900000E-01   1.00800           0
     13898 MEMB     104      POPC     C316     CTL3    -0.270000       12.0110           0
     13899 MEMB     104      POPC     H16X     HAL3     0.900000E-01   1.00800           0
     13900 MEMB     104      POPC     H16Y     HAL3     0.900000E-01   1.00800           0
     13901 MEMB     104      POPC     H16Z     HAL3     0.900000E-01   1.00800           0
     13902 MEMB     105      POPS     N        NH3L    -0.300000       14.0070           0
     13903 MEMB     105      POPS     HN1      HCL      0.330000       1.00800           0
     13904 MEMB     105      POPS     HN2      HCL      0.330000       1.00800           0
     13905 MEMB     105      POPS     HN3      HCL      0.330000       1.00800           0
     13906 MEMB     105      POPS     C12      CTL1     0.210000       12.0110           0
     13907 MEMB     105      POPS     H12A     HBL      0.100000       1.00800           0
     13908 MEMB     105      POPS     C13      CCL      0.340000       12.0110           0
     13909 MEMB     105      POPS     O13A     OCL     -0.670000       15.9994           0
     13910 MEMB     105      POPS     O13B     OCL     -0.670000       15.9994           0
     13911 MEMB     105      POPS     C11      CTL2    -0.800000E-01   12.0110           0
     13912 MEMB     105      POPS     H11A     HAL2     0.900000E-01   1.00800           0
     13913 MEMB     105      POPS     H11B     HAL2     0.900000E-01   1.00800           0
     13914 MEMB     105      POPS     P        PL       1.500000       30.9740           0
     13915 MEMB     105      POPS     O13      O2L     -0.780000       15.9994           0
     13916 MEMB     105      POPS     O14      O2L     -0.780000       15.9994           0
     13917 MEMB     105      POPS     O12      OSLP    -0.570000       15.9994           0
     13918 MEMB     105      POPS     O11      OSLP    -0.570000       15.9994           0
     13919 MEMB     105      POPS     C1       CTL2    -0.800000E-01   12.0110           0
     13920 MEMB     105      POPS     HA       HAL2     0.900000E-01   1.00800           0
     13921 MEMB     105      POPS     HB       HAL2     0.900000E-01   1.00800           0
     13922 MEMB     105      POPS     C2       CTL1     0.170000       12.0110           0
     13923 MEMB     105      POPS     HS       HAL1     0.900000E-01   1.00800           0
     13924 MEMB     105      POPS     O21      OSL     -0.490000       15.9994           0
     13925 MEMB     105      POPS     C21      CL       0.900000       12.0110           0
     13926 MEMB     105      POPS     O22      OBL     -0.630000       15.9994           0
     13927 MEMB     105      POPS     C22      CTL2    -0.220000       12.0110           0
     13928 MEMB     105      POPS     H2R      HAL2     0.900000E-01   1.00800           0
     13929 MEMB     105      POPS     H2S      HAL2     0.900000E-01   1.00800           0
     13930 MEMB     105      POPS     C3       CTL2     0.800000E-01   12.0110           0
     13931 MEMB     105      POPS     HX       HAL2     0.900000E-01   1.00800           0
     13932 MEMB     105      POPS     HY       HAL2     0.900000E-01   1.00800           0
     13933 MEMB     105      POPS     O31      OSL     -0.490000       15.9994           0
     13934 MEMB     105      POPS     C31      CL       0.900000       12.0110           0
     13935 MEMB     105      POPS     O32      OBL     -0.630000       15.9994           0
     13936 MEMB     105      POPS     C32      CTL2    -0.220000       12.0110           0
     13937 MEMB     105      POPS     H2X      HAL2     0.900000E-01   1.00800           0
     13938 MEMB     105      POPS     H2Y      HAL2     0.900000E-01   1.00800           0
     13939 MEMB     105      POPS     C23      CTL2    -0.180000       12.0110           0
     13940 MEMB     105      POPS     H3R      HAL2     0.900000E-01   1.00800           0
     13941 MEMB     105      POPS     H3S      HAL2     0.900000E-01   1.00800           0
     13942 MEMB     105      POPS     C24      CTL2    -0.180000       12.0110           0
     13943 MEMB     105      POPS     H4R      HAL2     0.900000E-01   1.00800           0
     13944 MEMB     105      POPS     H4S      HAL2     0.900000E-01   1.00800           0
     13945 MEMB     105      POPS     C25      CTL2    -0.180000       12.0110           0
     13946 MEMB     105      POPS     H5R      HAL2     0.900000E-01   1.00800           0
     13947 MEMB     105      POPS     H5S      HAL2     0.900000E-01   1.00800           0
     13948 MEMB     105      POPS     C26      CTL2    -0.180000       12.0110           0
     13949 MEMB     105      POPS     H6R      HAL2     0.900000E-01   1.00800           0
     13950 MEMB     105      POPS     H6S      HAL2     0.900000E-01   1.00800           0
     13951 MEMB     105      POPS     C27      CTL2    -0.180000       12.0110           0
     13952 MEMB     105      POPS     H7R      HAL2     0.900000E-01   1.00800           0
     13953 MEMB     105      POPS     H7S      HAL2     0.900000E-01   1.00800           0
     13954 MEMB     105      POPS     C28      CTL2    -0.180000       12.0110           0
     13955 MEMB     105      POPS     H8R      HAL2     0.900000E-01   1.00800           0
     13956 MEMB     105      POPS     H8S      HAL2     0.900000E-01   1.00800           0
     13957 MEMB     105      POPS     C29      CEL1    -0.150000       12.0110           0
     13958 MEMB     105      POPS     H91      HEL1     0.150000       1.00800           0
     13959 MEMB     105      POPS     C210     CEL1    -0.150000       12.0110           0
     13960 MEMB     105      POPS     H101     HEL1     0.150000       1.00800           0
     13961 MEMB     105      POPS     C211     CTL2    -0.180000       12.0110           0
     13962 MEMB     105      POPS     H11R     HAL2     0.900000E-01   1.00800           0
     13963 MEMB     105      POPS     H11S     HAL2     0.900000E-01   1.00800           0
     13964 MEMB     105      POPS     C212     CTL2    -0.180000       12.0110           0
     13965 MEMB     105      POPS     H12R     HAL2     0.900000E-01   1.00800           0
     13966 MEMB     105      POPS     H12S     HAL2     0.900000E-01   1.00800           0
     13967 MEMB     105      POPS     C213     CTL2    -0.180000       12.0110           0
     13968 MEMB     105      POPS     H13R     HAL2     0.900000E-01   1.00800           0
     13969 MEMB     105      POPS     H13S     HAL2     0.900000E-01   1.00800           0
     13970 MEMB     105      POPS     C214     CTL2    -0.180000       12.0110           0
     13971 MEMB     105      POPS     H14R     HAL2     0.900000E-01   1.00800           0
     13972 MEMB     105      POPS     H14S     HAL2     0.900000E-01   1.00800           0
     13973 MEMB     105      POPS     C215     CTL2    -0.180000       12.0110           0
     13974 MEMB     105      POPS     H15R     HAL2     0.900000E-01   1.00800           0
     13975 MEMB     105      POPS     H15S     HAL2     0.900000E-01   1.00800           0
     13976 MEMB     105      POPS     C216     CTL2    -0.180000       12.0110           0
     13977 MEMB     105      POPS     H16R     HAL2     0.900000E-01   1.00800           0
     13978 MEMB     105      POPS     H16S     HAL2     0.900000E-01   1.00800           0
     13979 MEMB     105      POPS     C217     CTL2    -0.180000       12.0110           0
     13980 MEMB     105      POPS     H17R     HAL2     0.900000E-01   1.00800           0
     13981 MEMB     105      POPS     H17S     HAL2     0.900000E-01   1.00800           0
     13982 MEMB     105      POPS     C218     CTL3    -0.270000       12.0110           0
     13983 MEMB     105      POPS     H18R     HAL3     0.900000E-01   1.00800           0
     13984 MEMB     105      POPS     H18S     HAL3     0.900000E-01   1.00800           0
     13985 MEMB     105      POPS     H18T     HAL3     0.900000E-01   1.00800           0
     13986 MEMB     105      POPS     C33      CTL2    -0.180000       12.0110           0
     13987 MEMB     105      POPS     H3X      HAL2     0.900000E-01   1.00800           0
     13988 MEMB     105      POPS     H3Y      HAL2     0.900000E-01   1.00800           0
     13989 MEMB     105      POPS     C34      CTL2    -0.180000       12.0110           0
     13990 MEMB     105      POPS     H4X      HAL2     0.900000E-01   1.00800           0
     13991 MEMB     105      POPS     H4Y      HAL2     0.900000E-01   1.00800           0
     13992 MEMB     105      POPS     C35      CTL2    -0.180000       12.0110           0
     13993 MEMB     105      POPS     H5X      HAL2     0.900000E-01   1.00800           0
     13994 MEMB     105      POPS     H5Y      HAL2     0.900000E-01   1.00800           0
     13995 MEMB     105      POPS     C36      CTL2    -0.180000       12.0110           0
     13996 MEMB     105      POPS     H6X      HAL2     0.900000E-01   1.00800           0
     13997 MEMB     105      POPS     H6Y      HAL2     0.900000E-01   1.00800           0
     13998 MEMB     105      POPS     C37      CTL2    -0.180000       12.0110           0
     13999 MEMB     105      POPS     H7X      HAL2     0.900000E-01   1.00800           0
     14000 MEMB     105      POPS     H7Y      HAL2     0.900000E-01   1.00800           0
     14001 MEMB     105      POPS     C38      CTL2    -0.180000       12.0110           0
     14002 MEMB     105      POPS     H8X      HAL2     0.900000E-01   1.00800           0
     14003 MEMB     105      POPS     H8Y      HAL2     0.900000E-01   1.00800           0
     14004 MEMB     105      POPS     C39      CTL2    -0.180000       12.0110           0
     14005 MEMB     105      POPS     H9X      HAL2     0.900000E-01   1.00800           0
     14006 MEMB     105      POPS     H9Y      HAL2     0.900000E-01   1.00800           0
     14007 MEMB     105      POPS     C310     CTL2    -0.180000       12.0110           0
     14008 MEMB     105      POPS     H10X     HAL2     0.900000E-01   1.00800           0
     14009 MEMB     105      POPS     H10Y     HAL2     0.900000E-01   1.00800           0
     14010 MEMB     105      POPS     C311     CTL2    -0.180000       12.0110           0
     14011 MEMB     105      POPS     H11X     HAL2     0.900000E-01   1.00800           0
     14012 MEMB     105      POPS     H11Y     HAL2     0.900000E-01   1.00800           0
     14013 MEMB     105      POPS     C312     CTL2    -0.180000       12.0110           0
     14014 MEMB     105      POPS     H12X     HAL2     0.900000E-01   1.00800           0
     14015 MEMB     105      POPS     H12Y     HAL2     0.900000E-01   1.00800           0
     14016 MEMB     105      POPS     C313     CTL2    -0.180000       12.0110           0
     14017 MEMB     105      POPS     H13X     HAL2     0.900000E-01   1.00800           0
     14018 MEMB     105      POPS     H13Y     HAL2     0.900000E-01   1.00800           0
     14019 MEMB     105      POPS     C314     CTL2    -0.180000       12.0110           0
     14020 MEMB     105      POPS     H14X     HAL2     0.900000E-01   1.00800           0
     14021 MEMB     105      POPS     H14Y     HAL2     0.900000E-01   1.00800           0
     14022 MEMB     105      POPS     C315     CTL2    -0.180000       12.0110           0
     14023 MEMB     105      POPS     H15X     HAL2     0.900000E-01   1.00800           0
     14024 MEMB     105      POPS     H15Y     HAL2     0.900000E-01   1.00800           0
     14025 MEMB     105      POPS     C316     CTL3    -0.270000       12.0110           0
     14026 MEMB     105      POPS     H16X     HAL3     0.900000E-01   1.00800           0
     14027 MEMB     105      POPS     H16Y     HAL3     0.900000E-01   1.00800           0
     14028 MEMB     105      POPS     H16Z     HAL3     0.900000E-01   1.00800           0
     14029 MEMB     106      POPC     N        NTL     -0.600000       14.0070           0
     14030 MEMB     106      POPC     C12      CTL2    -0.100000       12.0110           0
     14031 MEMB     106      POPC     H12A     HL       0.250000       1.00800           0
     14032 MEMB     106      POPC     H12B     HL       0.250000       1.00800           0
     14033 MEMB     106      POPC     C13      CTL5    -0.350000       12.0110           0
     14034 MEMB     106      POPC     H13A     HL       0.250000       1.00800           0
     14035 MEMB     106      POPC     H13B     HL       0.250000       1.00800           0
     14036 MEMB     106      POPC     H13C     HL       0.250000       1.00800           0
     14037 MEMB     106      POPC     C14      CTL5    -0.350000       12.0110           0
     14038 MEMB     106      POPC     H14A     HL       0.250000       1.00800           0
     14039 MEMB     106      POPC     H14B     HL       0.250000       1.00800           0
     14040 MEMB     106      POPC     H14C     HL       0.250000       1.00800           0
     14041 MEMB     106      POPC     C15      CTL5    -0.350000       12.0110           0
     14042 MEMB     106      POPC     H15A     HL       0.250000       1.00800           0
     14043 MEMB     106      POPC     H15B     HL       0.250000       1.00800           0
     14044 MEMB     106      POPC     H15C     HL       0.250000       1.00800           0
     14045 MEMB     106      POPC     C11      CTL2    -0.800000E-01   12.0110           0
     14046 MEMB     106      POPC     H11A     HAL2     0.900000E-01   1.00800           0
     14047 MEMB     106      POPC     H11B     HAL2     0.900000E-01   1.00800           0
     14048 MEMB     106      POPC     P        PL       1.500000       30.9740           0
     14049 MEMB     106      POPC     O13      O2L     -0.780000       15.9994           0
     14050 MEMB     106      POPC     O14      O2L     -0.780000       15.9994           0
     14051 MEMB     106      POPC     O12      OSLP    -0.570000       15.9994           0
     14052 MEMB     106      POPC     O11      OSLP    -0.570000       15.9994           0
     14053 MEMB     106      POPC     C1       CTL2    -0.800000E-01   12.0110           0
     14054 MEMB     106      POPC     HA       HAL2     0.900000E-01   1.00800           0
     14055 MEMB     106      POPC     HB       HAL2     0.900000E-01   1.00800           0
     14056 MEMB     106      POPC     C2       CTL1     0.170000       12.0110           0
     14057 MEMB     106      POPC     HS       HAL1     0.900000E-01   1.00800           0
     14058 MEMB     106      POPC     O21      OSL     -0.490000       15.9994           0
     14059 MEMB     106      POPC     C21      CL       0.900000       12.0110           0
     14060 MEMB     106      POPC     O22      OBL     -0.630000       15.9994           0
     14061 MEMB     106      POPC     C22      CTL2    -0.220000       12.0110           0
     14062 MEMB     106      POPC     H2R      HAL2     0.900000E-01   1.00800           0
     14063 MEMB     106      POPC     H2S      HAL2     0.900000E-01   1.00800           0
     14064 MEMB     106      POPC     C3       CTL2     0.800000E-01   12.0110           0
     14065 MEMB     106      POPC     HX       HAL2     0.900000E-01   1.00800           0
     14066 MEMB     106      POPC     HY       HAL2     0.900000E-01   1.00800           0
     14067 MEMB     106      POPC     O31      OSL     -0.490000       15.9994           0
     14068 MEMB     106      POPC     C31      CL       0.900000       12.0110           0
     14069 MEMB     106      POPC     O32      OBL     -0.630000       15.9994           0
     14070 MEMB     106      POPC     C32      CTL2    -0.220000       12.0110           0
     14071 MEMB     106      POPC     H2X      HAL2     0.900000E-01   1.00800           0
     14072 MEMB     106      POPC     H2Y      HAL2     0.900000E-01   1.00800           0
     14073 MEMB     106      POPC     C23      CTL2    -0.180000       12.0110           0
     14074 MEMB     106      POPC     H3R      HAL2     0.900000E-01   1.00800           0
     14075 MEMB     106      POPC     H3S      HAL2     0.900000E-01   1.00800           0
     14076 MEMB     106      POPC     C24      CTL2    -0.180000       12.0110           0
     14077 MEMB     106      POPC     H4R      HAL2     0.900000E-01   1.00800           0
     14078 MEMB     106      POPC     H4S      HAL2     0.900000E-01   1.00800           0
     14079 MEMB     106      POPC     C25      CTL2    -0.180000       12.0110           0
     14080 MEMB     106      POPC     H5R      HAL2     0.900000E-01   1.00800           0
     14081 MEMB     106      POPC     H5S      HAL2     0.900000E-01   1.00800           0
     14082 MEMB     106      POPC     C26      CTL2    -0.180000       12.0110           0
     14083 MEMB     106      POPC     H6R      HAL2     0.900000E-01   1.00800           0
     14084 MEMB     106      POPC     H6S      HAL2     0.900000E-01   1.00800           0
     14085 MEMB     106      POPC     C27      CTL2    -0.180000       12.0110           0
     14086 MEMB     106      POPC     H7R      HAL2     0.900000E-01   1.00800           0
     14087 MEMB     106      POPC     H7S      HAL2     0.900000E-01   1.00800           0
     14088 MEMB     106      POPC     C28      CTL2    -0.180000       12.0110           0
     14089 MEMB     106      POPC     H8R      HAL2     0.900000E-01   1.00800           0
     14090 MEMB     106      POPC     H8S      HAL2     0.900000E-01   1.00800           0
     14091 MEMB     106      POPC     C29      CEL1    -0.150000       12.0110           0
     14092 MEMB     106      POPC     H91      HEL1     0.150000       1.00800           0
     14093 MEMB     106      POPC     C210     CEL1    -0.150000       12.0110           0
     14094 MEMB     106      POPC     H101     HEL1     0.150000       1.00800           0
     14095 MEMB     106      POPC     C211     CTL2    -0.180000       12.0110           0
     14096 MEMB     106      POPC     H11R     HAL2     0.900000E-01   1.00800           0
     14097 MEMB     106      POPC     H11S     HAL2     0.900000E-01   1.00800           0
     14098 MEMB     106      POPC     C212     CTL2    -0.180000       12.0110           0
     14099 MEMB     106      POPC     H12R     HAL2     0.900000E-01   1.00800           0
     14100 MEMB     106      POPC     H12S     HAL2     0.900000E-01   1.00800           0
     14101 MEMB     106      POPC     C213     CTL2    -0.180000       12.0110           0
     14102 MEMB     106      POPC     H13R     HAL2     0.900000E-01   1.00800           0
     14103 MEMB     106      POPC     H13S     HAL2     0.900000E-01   1.00800           0
     14104 MEMB     106      POPC     C214     CTL2    -0.180000       12.0110           0
     14105 MEMB     106      POPC     H14R     HAL2     0.900000E-01   1.00800           0
     14106 MEMB     106      POPC     H14S     HAL2     0.900000E-01   1.00800           0
     14107 MEMB     106      POPC     C215     CTL2    -0.180000       12.0110           0
     14108 MEMB     106      POPC     H15R     HAL2     0.900000E-01   1.00800           0
     14109 MEMB     106      POPC     H15S     HAL2     0.900000E-01   1.00800           0
     14110 MEMB     106      POPC     C216     CTL2    -0.180000       12.0110           0
     14111 MEMB     106      POPC     H16R     HAL2     0.900000E-01   1.00800           0
     14112 MEMB     106      POPC     H16S     HAL2     0.900000E-01   1.00800           0
     14113 MEMB     106      POPC     C217     CTL2    -0.180000       12.0110           0
     14114 MEMB     106      POPC     H17R     HAL2     0.900000E-01   1.00800           0
     14115 MEMB     106      POPC     H17S     HAL2     0.900000E-01   1.00800           0
     14116 MEMB     106      POPC     C218     CTL3    -0.270000       12.0110           0
     14117 MEMB     106      POPC     H18R     HAL3     0.900000E-01   1.00800           0
     14118 MEMB     106      POPC     H18S     HAL3     0.900000E-01   1.00800           0
     14119 MEMB     106      POPC     H18T     HAL3     0.900000E-01   1.00800           0
     14120 MEMB     106      POPC     C33      CTL2    -0.180000       12.0110           0
     14121 MEMB     106      POPC     H3X      HAL2     0.900000E-01   1.00800           0
     14122 MEMB     106      POPC     H3Y      HAL2     0.900000E-01   1.00800           0
     14123 MEMB     106      POPC     C34      CTL2    -0.180000       12.0110           0
     14124 MEMB     106      POPC     H4X      HAL2     0.900000E-01   1.00800           0
     14125 MEMB     106      POPC     H4Y      HAL2     0.900000E-01   1.00800           0
     14126 MEMB     106      POPC     C35      CTL2    -0.180000       12.0110           0
     14127 MEMB     106      POPC     H5X      HAL2     0.900000E-01   1.00800           0
     14128 MEMB     106      POPC     H5Y      HAL2     0.900000E-01   1.00800           0
     14129 MEMB     106      POPC     C36      CTL2    -0.180000       12.0110           0
     14130 MEMB     106      POPC     H6X      HAL2     0.900000E-01   1.00800           0
     14131 MEMB     106      POPC     H6Y      HAL2     0.900000E-01   1.00800           0
     14132 MEMB     106      POPC     C37      CTL2    -0.180000       12.0110           0
     14133 MEMB     106      POPC     H7X      HAL2     0.900000E-01   1.00800           0
     14134 MEMB     106      POPC     H7Y      HAL2     0.900000E-01   1.00800           0
     14135 MEMB     106      POPC     C38      CTL2    -0.180000       12.0110           0
     14136 MEMB     106      POPC     H8X      HAL2     0.900000E-01   1.00800           0
     14137 MEMB     106      POPC     H8Y      HAL2     0.900000E-01   1.00800           0
     14138 MEMB     106      POPC     C39      CTL2    -0.180000       12.0110           0
     14139 MEMB     106      POPC     H9X      HAL2     0.900000E-01   1.00800           0
     14140 MEMB     106      POPC     H9Y      HAL2     0.900000E-01   1.00800           0
     14141 MEMB     106      POPC     C310     CTL2    -0.180000       12.0110           0
     14142 MEMB     106      POPC     H10X     HAL2     0.900000E-01   1.00800           0
     14143 MEMB     106      POPC     H10Y     HAL2     0.900000E-01   1.00800           0
     14144 MEMB     106      POPC     C311     CTL2    -0.180000       12.0110           0
     14145 MEMB     106      POPC     H11X     HAL2     0.900000E-01   1.00800           0
     14146 MEMB     106      POPC     H11Y     HAL2     0.900000E-01   1.00800           0
     14147 MEMB     106      POPC     C312     CTL2    -0.180000       12.0110           0
     14148 MEMB     106      POPC     H12X     HAL2     0.900000E-01   1.00800           0
     14149 MEMB     106      POPC     H12Y     HAL2     0.900000E-01   1.00800           0
     14150 MEMB     106      POPC     C313     CTL2    -0.180000       12.0110           0
     14151 MEMB     106      POPC     H13X     HAL2     0.900000E-01   1.00800           0
     14152 MEMB     106      POPC     H13Y     HAL2     0.900000E-01   1.00800           0
     14153 MEMB     106      POPC     C314     CTL2    -0.180000       12.0110           0
     14154 MEMB     106      POPC     H14X     HAL2     0.900000E-01   1.00800           0
     14155 MEMB     106      POPC     H14Y     HAL2     0.900000E-01   1.00800           0
     14156 MEMB     106      POPC     C315     CTL2    -0.180000       12.0110           0
     14157 MEMB     106      POPC     H15X     HAL2     0.900000E-01   1.00800           0
     14158 MEMB     106      POPC     H15Y     HAL2     0.900000E-01   1.00800           0
     14159 MEMB     106      POPC     C316     CTL3    -0.270000       12.0110           0
     14160 MEMB     106      POPC     H16X     HAL3     0.900000E-01   1.00800           0
     14161 MEMB     106      POPC     H16Y     HAL3     0.900000E-01   1.00800           0
     14162 MEMB     106      POPC     H16Z     HAL3     0.900000E-01   1.00800           0
     14163 MEMB     107      POPC     N        NTL     -0.600000       14.0070           0
     14164 MEMB     107      POPC     C12      CTL2    -0.100000       12.0110           0
     14165 MEMB     107      POPC     H12A     HL       0.250000       1.00800           0
     14166 MEMB     107      POPC     H12B     HL       0.250000       1.00800           0
     14167 MEMB     107      POPC     C13      CTL5    -0.350000       12.0110           0
     14168 MEMB     107      POPC     H13A     HL       0.250000       1.00800           0
     14169 MEMB     107      POPC     H13B     HL       0.250000       1.00800           0
     14170 MEMB     107      POPC     H13C     HL       0.250000       1.00800           0
     14171 MEMB     107      POPC     C14      CTL5    -0.350000       12.0110           0
     14172 MEMB     107      POPC     H14A     HL       0.250000       1.00800           0
     14173 MEMB     107      POPC     H14B     HL       0.250000       1.00800           0
     14174 MEMB     107      POPC     H14C     HL       0.250000       1.00800           0
     14175 MEMB     107      POPC     C15      CTL5    -0.350000       12.0110           0
     14176 MEMB     107      POPC     H15A     HL       0.250000       1.00800           0
     14177 MEMB     107      POPC     H15B     HL       0.250000       1.00800           0
     14178 MEMB     107      POPC     H15C     HL       0.250000       1.00800           0
     14179 MEMB     107      POPC     C11      CTL2    -0.800000E-01   12.0110           0
     14180 MEMB     107      POPC     H11A     HAL2     0.900000E-01   1.00800           0
     14181 MEMB     107      POPC     H11B     HAL2     0.900000E-01   1.00800           0
     14182 MEMB     107      POPC     P        PL       1.500000       30.9740           0
     14183 MEMB     107      POPC     O13      O2L     -0.780000       15.9994           0
     14184 MEMB     107      POPC     O14      O2L     -0.780000       15.9994           0
     14185 MEMB     107      POPC     O12      OSLP    -0.570000       15.9994           0
     14186 MEMB     107      POPC     O11      OSLP    -0.570000       15.9994           0
     14187 MEMB     107      POPC     C1       CTL2    -0.800000E-01   12.0110           0
     14188 MEMB     107      POPC     HA       HAL2     0.900000E-01   1.00800           0
     14189 MEMB     107      POPC     HB       HAL2     0.900000E-01   1.00800           0
     14190 MEMB     107      POPC     C2       CTL1     0.170000       12.0110           0
     14191 MEMB     107      POPC     HS       HAL1     0.900000E-01   1.00800           0
     14192 MEMB     107      POPC     O21      OSL     -0.490000       15.9994           0
     14193 MEMB     107      POPC     C21      CL       0.900000       12.0110           0
     14194 MEMB     107      POPC     O22      OBL     -0.630000       15.9994           0
     14195 MEMB     107      POPC     C22      CTL2    -0.220000       12.0110           0
     14196 MEMB     107      POPC     H2R      HAL2     0.900000E-01   1.00800           0
     14197 MEMB     107      POPC     H2S      HAL2     0.900000E-01   1.00800           0
     14198 MEMB     107      POPC     C3       CTL2     0.800000E-01   12.0110           0
     14199 MEMB     107      POPC     HX       HAL2     0.900000E-01   1.00800           0
     14200 MEMB     107      POPC     HY       HAL2     0.900000E-01   1.00800           0
     14201 MEMB     107      POPC     O31      OSL     -0.490000       15.9994           0
     14202 MEMB     107      POPC     C31      CL       0.900000       12.0110           0
     14203 MEMB     107      POPC     O32      OBL     -0.630000       15.9994           0
     14204 MEMB     107      POPC     C32      CTL2    -0.220000       12.0110           0
     14205 MEMB     107      POPC     H2X      HAL2     0.900000E-01   1.00800           0
     14206 MEMB     107      POPC     H2Y      HAL2     0.900000E-01   1.00800           0
     14207 MEMB     107      POPC     C23      CTL2    -0.180000       12.0110           0
     14208 MEMB     107      POPC     H3R      HAL2     0.900000E-01   1.00800           0
     14209 MEMB     107      POPC     H3S      HAL2     0.900000E-01   1.00800           0
     14210 MEMB     107      POPC     C24      CTL2    -0.180000       12.0110           0
     14211 MEMB     107      POPC     H4R      HAL2     0.900000E-01   1.00800           0
     14212 MEMB     107      POPC     H4S      HAL2     0.900000E-01   1.00800           0
     14213 MEMB     107      POPC     C25      CTL2    -0.180000       12.0110           0
     14214 MEMB     107      POPC     H5R      HAL2     0.900000E-01   1.00800           0
     14215 MEMB     107      POPC     H5S      HAL2     0.900000E-01   1.00800           0
     14216 MEMB     107      POPC     C26      CTL2    -0.180000       12.0110           0
     14217 MEMB     107      POPC     H6R      HAL2     0.900000E-01   1.00800           0
     14218 MEMB     107      POPC     H6S      HAL2     0.900000E-01   1.00800           0
     14219 MEMB     107      POPC     C27      CTL2    -0.180000       12.0110           0
     14220 MEMB     107      POPC     H7R      HAL2     0.900000E-01   1.00800           0
     14221 MEMB     107      POPC     H7S      HAL2     0.900000E-01   1.00800           0
     14222 MEMB     107      POPC     C28      CTL2    -0.180000       12.0110           0
     14223 MEMB     107      POPC     H8R      HAL2     0.900000E-01   1.00800           0
     14224 MEMB     107      POPC     H8S      HAL2     0.900000E-01   1.00800           0
     14225 MEMB     107      POPC     C29      CEL1    -0.150000       12.0110           0
     14226 MEMB     107      POPC     H91      HEL1     0.150000       1.00800           0
     14227 MEMB     107      POPC     C210     CEL1    -0.150000       12.0110           0
     14228 MEMB     107      POPC     H101     HEL1     0.150000       1.00800           0
     14229 MEMB     107      POPC     C211     CTL2    -0.180000       12.0110           0
     14230 MEMB     107      POPC     H11R     HAL2     0.900000E-01   1.00800           0
     14231 MEMB     107      POPC     H11S     HAL2     0.900000E-01   1.00800           0
     14232 MEMB     107      POPC     C212     CTL2    -0.180000       12.0110           0
     14233 MEMB     107      POPC     H12R     HAL2     0.900000E-01   1.00800           0
     14234 MEMB     107      POPC     H12S     HAL2     0.900000E-01   1.00800           0
     14235 MEMB     107      POPC     C213     CTL2    -0.180000       12.0110           0
     14236 MEMB     107      POPC     H13R     HAL2     0.900000E-01   1.00800           0
     14237 MEMB     107      POPC     H13S     HAL2     0.900000E-01   1.00800           0
     14238 MEMB     107      POPC     C214     CTL2    -0.180000       12.0110           0
     14239 MEMB     107      POPC     H14R     HAL2     0.900000E-01   1.00800           0
     14240 MEMB     107      POPC     H14S     HAL2     0.900000E-01   1.00800           0
     14241 MEMB     107      POPC     C215     CTL2    -0.180000       12.0110           0
     14242 MEMB     107      POPC     H15R     HAL2     0.900000E-01   1.00800           0
     14243 MEMB     107      POPC     H15S     HAL2     0.900000E-01   1.00800           0
     14244 MEMB     107      POPC     C216     CTL2    -0.180000       12.0110           0
     14245 MEMB     107      POPC     H16R     HAL2     0.900000E-01   1.00800           0
     14246 MEMB     107      POPC     H16S     HAL2     0.900000E-01   1.00800           0
     14247 MEMB     107      POPC     C217     CTL2    -0.180000       12.0110           0
     14248 MEMB     107      POPC     H17R     HAL2     0.900000E-01   1.00800           0
     14249 MEMB     107      POPC     H17S     HAL2     0.900000E-01   1.00800           0
     14250 MEMB     107      POPC     C218     CTL3    -0.270000       12.0110           0
     14251 MEMB     107      POPC     H18R     HAL3     0.900000E-01   1.00800           0
     14252 MEMB     107      POPC     H18S     HAL3     0.900000E-01   1.00800           0
     14253 MEMB     107      POPC     H18T     HAL3     0.900000E-01   1.00800           0
     14254 MEMB     107      POPC     C33      CTL2    -0.180000       12.0110           0
     14255 MEMB     107      POPC     H3X      HAL2     0.900000E-01   1.00800           0
     14256 MEMB     107      POPC     H3Y      HAL2     0.900000E-01   1.00800           0
     14257 MEMB     107      POPC     C34      CTL2    -0.180000       12.0110           0
     14258 MEMB     107      POPC     H4X      HAL2     0.900000E-01   1.00800           0
     14259 MEMB     107      POPC     H4Y      HAL2     0.900000E-01   1.00800           0
     14260 MEMB     107      POPC     C35      CTL2    -0.180000       12.0110           0
     14261 MEMB     107      POPC     H5X      HAL2     0.900000E-01   1.00800           0
     14262 MEMB     107      POPC     H5Y      HAL2     0.900000E-01   1.00800           0
     14263 MEMB     107      POPC     C36      CTL2    -0.180000       12.0110           0
     14264 MEMB     107      POPC     H6X      HAL2     0.900000E-01   1.00800           0
     14265 MEMB     107      POPC     H6Y      HAL2     0.900000E-01   1.00800           0
     14266 MEMB     107      POPC     C37      CTL2    -0.180000       12.0110           0
     14267 MEMB     107      POPC     H7X      HAL2     0.900000E-01   1.00800           0
     14268 MEMB     107      POPC     H7Y      HAL2     0.900000E-01   1.00800           0
     14269 MEMB     107      POPC     C38      CTL2    -0.180000       12.0110           0
     14270 MEMB     107      POPC     H8X      HAL2     0.900000E-01   1.00800           0
     14271 MEMB     107      POPC     H8Y      HAL2     0.900000E-01   1.00800           0
     14272 MEMB     107      POPC     C39      CTL2    -0.180000       12.0110           0
     14273 MEMB     107      POPC     H9X      HAL2     0.900000E-01   1.00800           0
     14274 MEMB     107      POPC     H9Y      HAL2     0.900000E-01   1.00800           0
     14275 MEMB     107      POPC     C310     CTL2    -0.180000       12.0110           0
     14276 MEMB     107      POPC     H10X     HAL2     0.900000E-01   1.00800           0
     14277 MEMB     107      POPC     H10Y     HAL2     0.900000E-01   1.00800           0
     14278 MEMB     107      POPC     C311     CTL2    -0.180000       12.0110           0
     14279 MEMB     107      POPC     H11X     HAL2     0.900000E-01   1.00800           0
     14280 MEMB     107      POPC     H11Y     HAL2     0.900000E-01   1.00800           0
     14281 MEMB     107      POPC     C312     CTL2    -0.180000       12.0110           0
     14282 MEMB     107      POPC     H12X     HAL2     0.900000E-01   1.00800           0
     14283 MEMB     107      POPC     H12Y     HAL2     0.900000E-01   1.00800           0
     14284 MEMB     107      POPC     C313     CTL2    -0.180000       12.0110           0
     14285 MEMB     107      POPC     H13X     HAL2     0.900000E-01   1.00800           0
     14286 MEMB     107      POPC     H13Y     HAL2     0.900000E-01   1.00800           0
     14287 MEMB     107      POPC     C314     CTL2    -0.180000       12.0110           0
     14288 MEMB     107      POPC     H14X     HAL2     0.900000E-01   1.00800           0
     14289 MEMB     107      POPC     H14Y     HAL2     0.900000E-01   1.00800           0
     14290 MEMB     107      POPC     C315     CTL2    -0.180000       12.0110           0
     14291 MEMB     107      POPC     H15X     HAL2     0.900000E-01   1.00800           0
     14292 MEMB     107      POPC     H15Y     HAL2     0.900000E-01   1.00800           0
     14293 MEMB     107      POPC     C316     CTL3    -0.270000       12.0110           0
     14294 MEMB     107      POPC     H16X     HAL3     0.900000E-01   1.00800           0
     14295 MEMB     107      POPC     H16Y     HAL3     0.900000E-01   1.00800           0
     14296 MEMB     107      POPC     H16Z     HAL3     0.900000E-01   1.00800           0
     14297 MEMB     108      POPS     N        NH3L    -0.300000       14.0070           0
     14298 MEMB     108      POPS     HN1      HCL      0.330000       1.00800           0
     14299 MEMB     108      POPS     HN2      HCL      0.330000       1.00800           0
     14300 MEMB     108      POPS     HN3      HCL      0.330000       1.00800           0
     14301 MEMB     108      POPS     C12      CTL1     0.210000       12.0110           0
     14302 MEMB     108      POPS     H12A     HBL      0.100000       1.00800           0
     14303 MEMB     108      POPS     C13      CCL      0.340000       12.0110           0
     14304 MEMB     108      POPS     O13A     OCL     -0.670000       15.9994           0
     14305 MEMB     108      POPS     O13B     OCL     -0.670000       15.9994           0
     14306 MEMB     108      POPS     C11      CTL2    -0.800000E-01   12.0110           0
     14307 MEMB     108      POPS     H11A     HAL2     0.900000E-01   1.00800           0
     14308 MEMB     108      POPS     H11B     HAL2     0.900000E-01   1.00800           0
     14309 MEMB     108      POPS     P        PL       1.500000       30.9740           0
     14310 MEMB     108      POPS     O13      O2L     -0.780000       15.9994           0
     14311 MEMB     108      POPS     O14      O2L     -0.780000       15.9994           0
     14312 MEMB     108      POPS     O12      OSLP    -0.570000       15.9994           0
     14313 MEMB     108      POPS     O11      OSLP    -0.570000       15.9994           0
     14314 MEMB     108      POPS     C1       CTL2    -0.800000E-01   12.0110           0
     14315 MEMB     108      POPS     HA       HAL2     0.900000E-01   1.00800           0
     14316 MEMB     108      POPS     HB       HAL2     0.900000E-01   1.00800           0
     14317 MEMB     108      POPS     C2       CTL1     0.170000       12.0110           0
     14318 MEMB     108      POPS     HS       HAL1     0.900000E-01   1.00800           0
     14319 MEMB     108      POPS     O21      OSL     -0.490000       15.9994           0
     14320 MEMB     108      POPS     C21      CL       0.900000       12.0110           0
     14321 MEMB     108      POPS     O22      OBL     -0.630000       15.9994           0
     14322 MEMB     108      POPS     C22      CTL2    -0.220000       12.0110           0
     14323 MEMB     108      POPS     H2R      HAL2     0.900000E-01   1.00800           0
     14324 MEMB     108      POPS     H2S      HAL2     0.900000E-01   1.00800           0
     14325 MEMB     108      POPS     C3       CTL2     0.800000E-01   12.0110           0
     14326 MEMB     108      POPS     HX       HAL2     0.900000E-01   1.00800           0
     14327 MEMB     108      POPS     HY       HAL2     0.900000E-01   1.00800           0
     14328 MEMB     108      POPS     O31      OSL     -0.490000       15.9994           0
     14329 MEMB     108      POPS     C31      CL       0.900000       12.0110           0
     14330 MEMB     108      POPS     O32      OBL     -0.630000       15.9994           0
     14331 MEMB     108      POPS     C32      CTL2    -0.220000       12.0110           0
     14332 MEMB     108      POPS     H2X      HAL2     0.900000E-01   1.00800           0
     14333 MEMB     108      POPS     H2Y      HAL2     0.900000E-01   1.00800           0
     14334 MEMB     108      POPS     C23      CTL2    -0.180000       12.0110           0
     14335 MEMB     108      POPS     H3R      HAL2     0.900000E-01   1.00800           0
     14336 MEMB     108      POPS     H3S      HAL2     0.900000E-01   1.00800           0
     14337 MEMB     108      POPS     C24      CTL2    -0.180000       12.0110           0
     14338 MEMB     108      POPS     H4R      HAL2     0.900000E-01   1.00800           0
     14339 MEMB     108      POPS     H4S      HAL2     0.900000E-01   1.00800           0
     14340 MEMB     108      POPS     C25      CTL2    -0.180000       12.0110           0
     14341 MEMB     108      POPS     H5R      HAL2     0.900000E-01   1.00800           0
     14342 MEMB     108      POPS     H5S      HAL2     0.900000E-01   1.00800           0
     14343 MEMB     108      POPS     C26      CTL2    -0.180000       12.0110           0
     14344 MEMB     108      POPS     H6R      HAL2     0.900000E-01   1.00800           0
     14345 MEMB     108      POPS     H6S      HAL2     0.900000E-01   1.00800           0
     14346 MEMB     108      POPS     C27      CTL2    -0.180000       12.0110           0
     14347 MEMB     108      POPS     H7R      HAL2     0.900000E-01   1.00800           0
     14348 MEMB     108      POPS     H7S      HAL2     0.900000E-01   1.00800           0
     14349 MEMB     108      POPS     C28      CTL2    -0.180000       12.0110           0
     14350 MEMB     108      POPS     H8R      HAL2     0.900000E-01   1.00800           0
     14351 MEMB     108      POPS     H8S      HAL2     0.900000E-01   1.00800           0
     14352 MEMB     108      POPS     C29      CEL1    -0.150000       12.0110           0
     14353 MEMB     108      POPS     H91      HEL1     0.150000       1.00800           0
     14354 MEMB     108      POPS     C210     CEL1    -0.150000       12.0110           0
     14355 MEMB     108      POPS     H101     HEL1     0.150000       1.00800           0
     14356 MEMB     108      POPS     C211     CTL2    -0.180000       12.0110           0
     14357 MEMB     108      POPS     H11R     HAL2     0.900000E-01   1.00800           0
     14358 MEMB     108      POPS     H11S     HAL2     0.900000E-01   1.00800           0
     14359 MEMB     108      POPS     C212     CTL2    -0.180000       12.0110           0
     14360 MEMB     108      POPS     H12R     HAL2     0.900000E-01   1.00800           0
     14361 MEMB     108      POPS     H12S     HAL2     0.900000E-01   1.00800           0
     14362 MEMB     108      POPS     C213     CTL2    -0.180000       12.0110           0
     14363 MEMB     108      POPS     H13R     HAL2     0.900000E-01   1.00800           0
     14364 MEMB     108      POPS     H13S     HAL2     0.900000E-01   1.00800           0
     14365 MEMB     108      POPS     C214     CTL2    -0.180000       12.0110           0
     14366 MEMB     108      POPS     H14R     HAL2     0.900000E-01   1.00800           0
     14367 MEMB     108      POPS     H14S     HAL2     0.900000E-01   1.00800           0
     14368 MEMB     108      POPS     C215     CTL2    -0.180000       12.0110           0
     14369 MEMB     108      POPS     H15R     HAL2     0.900000E-01   1.00800           0
     14370 MEMB     108      POPS     H15S     HAL2     0.900000E-01   1.00800           0
     14371 MEMB     108      POPS     C216     CTL2    -0.180000       12.0110           0
     14372 MEMB     108      POPS     H16R     HAL2     0.900000E-01   1.00800           0
     14373 MEMB     108      POPS     H16S     HAL2     0.900000E-01   1.00800           0
     14374 MEMB     108      POPS     C217     CTL2    -0.180000       12.0110           0
     14375 MEMB     108      POPS     H17R     HAL2     0.900000E-01   1.00800           0
     14376 MEMB     108      POPS     H17S     HAL2     0.900000E-01   1.00800           0
     14377 MEMB     108      POPS     C218     CTL3    -0.270000       12.0110           0
     14378 MEMB     108      POPS     H18R     HAL3     0.900000E-01   1.00800           0
     14379 MEMB     108      POPS     H18S     HAL3     0.900000E-01   1.00800           0
     14380 MEMB     108      POPS     H18T     HAL3     0.900000E-01   1.00800           0
     14381 MEMB     108      POPS     C33      CTL2    -0.180000       12.0110           0
     14382 MEMB     108      POPS     H3X      HAL2     0.900000E-01   1.00800           0
     14383 MEMB     108      POPS     H3Y      HAL2     0.900000E-01   1.00800           0
     14384 MEMB     108      POPS     C34      CTL2    -0.180000       12.0110           0
     14385 MEMB     108      POPS     H4X      HAL2     0.900000E-01   1.00800           0
     14386 MEMB     108      POPS     H4Y      HAL2     0.900000E-01   1.00800           0
     14387 MEMB     108      POPS     C35      CTL2    -0.180000       12.0110           0
     14388 MEMB     108      POPS     H5X      HAL2     0.900000E-01   1.00800           0
     14389 MEMB     108      POPS     H5Y      HAL2     0.900000E-01   1.00800           0
     14390 MEMB     108      POPS     C36      CTL2    -0.180000       12.0110           0
     14391 MEMB     108      POPS     H6X      HAL2     0.900000E-01   1.00800           0
     14392 MEMB     108      POPS     H6Y      HAL2     0.900000E-01   1.00800           0
     14393 MEMB     108      POPS     C37      CTL2    -0.180000       12.0110           0
     14394 MEMB     108      POPS     H7X      HAL2     0.900000E-01   1.00800           0
     14395 MEMB     108      POPS     H7Y      HAL2     0.900000E-01   1.00800           0
     14396 MEMB     108      POPS     C38      CTL2    -0.180000       12.0110           0
     14397 MEMB     108      POPS     H8X      HAL2     0.900000E-01   1.00800           0
     14398 MEMB     108      POPS     H8Y      HAL2     0.900000E-01   1.00800           0
     14399 MEMB     108      POPS     C39      CTL2    -0.180000       12.0110           0
     14400 MEMB     108      POPS     H9X      HAL2     0.900000E-01   1.00800           0
     14401 MEMB     108      POPS     H9Y      HAL2     0.900000E-01   1.00800           0
     14402 MEMB     108      POPS     C310     CTL2    -0.180000       12.0110           0
     14403 MEMB     108      POPS     H10X     HAL2     0.900000E-01   1.00800           0
     14404 MEMB     108      POPS     H10Y     HAL2     0.900000E-01   1.00800           0
     14405 MEMB     108      POPS     C311     CTL2    -0.180000       12.0110           0
     14406 MEMB     108      POPS     H11X     HAL2     0.900000E-01   1.00800           0
     14407 MEMB     108      POPS     H11Y     HAL2     0.900000E-01   1.00800           0
     14408 MEMB     108      POPS     C312     CTL2    -0.180000       12.0110           0
     14409 MEMB     108      POPS     H12X     HAL2     0.900000E-01   1.00800           0
     14410 MEMB     108      POPS     H12Y     HAL2     0.900000E-01   1.00800           0
     14411 MEMB     108      POPS     C313     CTL2    -0.180000       12.0110           0
     14412 MEMB     108      POPS     H13X     HAL2     0.900000E-01   1.00800           0
     14413 MEMB     108      POPS     H13Y     HAL2     0.900000E-01   1.00800           0
     14414 MEMB     108      POPS     C314     CTL2    -0.180000       12.0110           0
     14415 MEMB     108      POPS     H14X     HAL2     0.900000E-01   1.00800           0
     14416 MEMB     108      POPS     H14Y     HAL2     0.900000E-01   1.00800           0
     14417 MEMB     108      POPS     C315     CTL2    -0.180000       12.0110           0
     14418 MEMB     108      POPS     H15X     HAL2     0.900000E-01   1.00800           0
     14419 MEMB     108      POPS     H15Y     HAL2     0.900000E-01   1.00800           0
     14420 MEMB     108      POPS     C316     CTL3    -0.270000       12.0110           0
     14421 MEMB     108      POPS     H16X     HAL3     0.900000E-01   1.00800           0
     14422 MEMB     108      POPS     H16Y     HAL3     0.900000E-01   1.00800           0
     14423 MEMB     108      POPS     H16Z     HAL3     0.900000E-01   1.00800           0
     14424 MEMB     109      POPC     N        NTL     -0.600000       14.0070           0
     14425 MEMB     109      POPC     C12      CTL2    -0.100000       12.0110           0
     14426 MEMB     109      POPC     H12A     HL       0.250000       1.00800           0
     14427 MEMB     109      POPC     H12B     HL       0.250000       1.00800           0
     14428 MEMB     109      POPC     C13      CTL5    -0.350000       12.0110           0
     14429 MEMB     109      POPC     H13A     HL       0.250000       1.00800           0
     14430 MEMB     109      POPC     H13B     HL       0.250000       1.00800           0
     14431 MEMB     109      POPC     H13C     HL       0.250000       1.00800           0
     14432 MEMB     109      POPC     C14      CTL5    -0.350000       12.0110           0
     14433 MEMB     109      POPC     H14A     HL       0.250000       1.00800           0
     14434 MEMB     109      POPC     H14B     HL       0.250000       1.00800           0
     14435 MEMB     109      POPC     H14C     HL       0.250000       1.00800           0
     14436 MEMB     109      POPC     C15      CTL5    -0.350000       12.0110           0
     14437 MEMB     109      POPC     H15A     HL       0.250000       1.00800           0
     14438 MEMB     109      POPC     H15B     HL       0.250000       1.00800           0
     14439 MEMB     109      POPC     H15C     HL       0.250000       1.00800           0
     14440 MEMB     109      POPC     C11      CTL2    -0.800000E-01   12.0110           0
     14441 MEMB     109      POPC     H11A     HAL2     0.900000E-01   1.00800           0
     14442 MEMB     109      POPC     H11B     HAL2     0.900000E-01   1.00800           0
     14443 MEMB     109      POPC     P        PL       1.500000       30.9740           0
     14444 MEMB     109      POPC     O13      O2L     -0.780000       15.9994           0
     14445 MEMB     109      POPC     O14      O2L     -0.780000       15.9994           0
     14446 MEMB     109      POPC     O12      OSLP    -0.570000       15.9994           0
     14447 MEMB     109      POPC     O11      OSLP    -0.570000       15.9994           0
     14448 MEMB     109      POPC     C1       CTL2    -0.800000E-01   12.0110           0
     14449 MEMB     109      POPC     HA       HAL2     0.900000E-01   1.00800           0
     14450 MEMB     109      POPC     HB       HAL2     0.900000E-01   1.00800           0
     14451 MEMB     109      POPC     C2       CTL1     0.170000       12.0110           0
     14452 MEMB     109      POPC     HS       HAL1     0.900000E-01   1.00800           0
     14453 MEMB     109      POPC     O21      OSL     -0.490000       15.9994           0
     14454 MEMB     109      POPC     C21      CL       0.900000       12.0110           0
     14455 MEMB     109      POPC     O22      OBL     -0.630000       15.9994           0
     14456 MEMB     109      POPC     C22      CTL2    -0.220000       12.0110           0
     14457 MEMB     109      POPC     H2R      HAL2     0.900000E-01   1.00800           0
     14458 MEMB     109      POPC     H2S      HAL2     0.900000E-01   1.00800           0
     14459 MEMB     109      POPC     C3       CTL2     0.800000E-01   12.0110           0
     14460 MEMB     109      POPC     HX       HAL2     0.900000E-01   1.00800           0
     14461 MEMB     109      POPC     HY       HAL2     0.900000E-01   1.00800           0
     14462 MEMB     109      POPC     O31      OSL     -0.490000       15.9994           0
     14463 MEMB     109      POPC     C31      CL       0.900000       12.0110           0
     14464 MEMB     109      POPC     O32      OBL     -0.630000       15.9994           0
     14465 MEMB     109      POPC     C32      CTL2    -0.220000       12.0110           0
     14466 MEMB     109      POPC     H2X      HAL2     0.900000E-01   1.00800           0
     14467 MEMB     109      POPC     H2Y      HAL2     0.900000E-01   1.00800           0
     14468 MEMB     109      POPC     C23      CTL2    -0.180000       12.0110           0
     14469 MEMB     109      POPC     H3R      HAL2     0.900000E-01   1.00800           0
     14470 MEMB     109      POPC     H3S      HAL2     0.900000E-01   1.00800           0
     14471 MEMB     109      POPC     C24      CTL2    -0.180000       12.0110           0
     14472 MEMB     109      POPC     H4R      HAL2     0.900000E-01   1.00800           0
     14473 MEMB     109      POPC     H4S      HAL2     0.900000E-01   1.00800           0
     14474 MEMB     109      POPC     C25      CTL2    -0.180000       12.0110           0
     14475 MEMB     109      POPC     H5R      HAL2     0.900000E-01   1.00800           0
     14476 MEMB     109      POPC     H5S      HAL2     0.900000E-01   1.00800           0
     14477 MEMB     109      POPC     C26      CTL2    -0.180000       12.0110           0
     14478 MEMB     109      POPC     H6R      HAL2     0.900000E-01   1.00800           0
     14479 MEMB     109      POPC     H6S      HAL2     0.900000E-01   1.00800           0
     14480 MEMB     109      POPC     C27      CTL2    -0.180000       12.0110           0
     14481 MEMB     109      POPC     H7R      HAL2     0.900000E-01   1.00800           0
     14482 MEMB     109      POPC     H7S      HAL2     0.900000E-01   1.00800           0
     14483 MEMB     109      POPC     C28      CTL2    -0.180000       12.0110           0
     14484 MEMB     109      POPC     H8R      HAL2     0.900000E-01   1.00800           0
     14485 MEMB     109      POPC     H8S      HAL2     0.900000E-01   1.00800           0
     14486 MEMB     109      POPC     C29      CEL1    -0.150000       12.0110           0
     14487 MEMB     109      POPC     H91      HEL1     0.150000       1.00800           0
     14488 MEMB     109      POPC     C210     CEL1    -0.150000       12.0110           0
     14489 MEMB     109      POPC     H101     HEL1     0.150000       1.00800           0
     14490 MEMB     109      POPC     C211     CTL2    -0.180000       12.0110           0
     14491 MEMB     109      POPC     H11R     HAL2     0.900000E-01   1.00800           0
     14492 MEMB     109      POPC     H11S     HAL2     0.900000E-01   1.00800           0
     14493 MEMB     109      POPC     C212     CTL2    -0.180000       12.0110           0
     14494 MEMB     109      POPC     H12R     HAL2     0.900000E-01   1.00800           0
     14495 MEMB     109      POPC     H12S     HAL2     0.900000E-01   1.00800           0
     14496 MEMB     109      POPC     C213     CTL2    -0.180000       12.0110           0
     14497 MEMB     109      POPC     H13R     HAL2     0.900000E-01   1.00800           0
     14498 MEMB     109      POPC     H13S     HAL2     0.900000E-01   1.00800           0
     14499 MEMB     109      POPC     C214     CTL2    -0.180000       12.0110           0
     14500 MEMB     109      POPC     H14R     HAL2     0.900000E-01   1.00800           0
     14501 MEMB     109      POPC     H14S     HAL2     0.900000E-01   1.00800           0
     14502 MEMB     109      POPC     C215     CTL2    -0.180000       12.0110           0
     14503 MEMB     109      POPC     H15R     HAL2     0.900000E-01   1.00800           0
     14504 MEMB     109      POPC     H15S     HAL2     0.900000E-01   1.00800           0
     14505 MEMB     109      POPC     C216     CTL2    -0.180000       12.0110           0
     14506 MEMB     109      POPC     H16R     HAL2     0.900000E-01   1.00800           0
     14507 MEMB     109      POPC     H16S     HAL2     0.900000E-01   1.00800           0
     14508 MEMB     109      POPC     C217     CTL2    -0.180000       12.0110           0
     14509 MEMB     109      POPC     H17R     HAL2     0.900000E-01   1.00800           0
     14510 MEMB     109      POPC     H17S     HAL2     0.900000E-01   1.00800           0
     14511 MEMB     109      POPC     C218     CTL3    -0.270000       12.0110           0
     14512 MEMB     109      POPC     H18R     HAL3     0.900000E-01   1.00800           0
     14513 MEMB     109      POPC     H18S     HAL3     0.900000E-01   1.00800           0
     14514 MEMB     109      POPC     H18T     HAL3     0.900000E-01   1.00800           0
     14515 MEMB     109      POPC     C33      CTL2    -0.180000       12.0110           0
     14516 MEMB     109      POPC     H3X      HAL2     0.900000E-01   1.00800           0
     14517 MEMB     109      POPC     H3Y      HAL2     0.900000E-01   1.00800           0
     14518 MEMB     109      POPC     C34      CTL2    -0.180000       12.0110           0
     14519 MEMB     109      POPC     H4X      HAL2     0.900000E-01   1.00800           0
     14520 MEMB     109      POPC     H4Y      HAL2     0.900000E-01   1.00800           0
     14521 MEMB     109      POPC     C35      CTL2    -0.180000       12.0110           0
     14522 MEMB     109      POPC     H5X      HAL2     0.900000E-01   1.00800           0
     14523 MEMB     109      POPC     H5Y      HAL2     0.900000E-01   1.00800           0
     14524 MEMB     109      POPC     C36      CTL2    -0.180000       12.0110           0
     14525 MEMB     109      POPC     H6X      HAL2     0.900000E-01   1.00800           0
     14526 MEMB     109      POPC     H6Y      HAL2     0.900000E-01   1.00800           0
     14527 MEMB     109      POPC     C37      CTL2    -0.180000       12.0110           0
     14528 MEMB     109      POPC     H7X      HAL2     0.900000E-01   1.00800           0
     14529 MEMB     109      POPC     H7Y      HAL2     0.900000E-01   1.00800           0
     14530 MEMB     109      POPC     C38      CTL2    -0.180000       12.0110           0
     14531 MEMB     109      POPC     H8X      HAL2     0.900000E-01   1.00800           0
     14532 MEMB     109      POPC     H8Y      HAL2     0.900000E-01   1.00800           0
     14533 MEMB     109      POPC     C39      CTL2    -0.180000       12.0110           0
     14534 MEMB     109      POPC     H9X      HAL2     0.900000E-01   1.00800           0
     14535 MEMB     109      POPC     H9Y      HAL2     0.900000E-01   1.00800           0
     14536 MEMB     109      POPC     C310     CTL2    -0.180000       12.0110           0
     14537 MEMB     109      POPC     H10X     HAL2     0.900000E-01   1.00800           0
     14538 MEMB     109      POPC     H10Y     HAL2     0.900000E-01   1.00800           0
     14539 MEMB     109      POPC     C311     CTL2    -0.180000       12.0110           0
     14540 MEMB     109      POPC     H11X     HAL2     0.900000E-01   1.00800           0
     14541 MEMB     109      POPC     H11Y     HAL2     0.900000E-01   1.00800           0
     14542 MEMB     109      POPC     C312     CTL2    -0.180000       12.0110           0
     14543 MEMB     109      POPC     H12X     HAL2     0.900000E-01   1.00800           0
     14544 MEMB     109      POPC     H12Y     HAL2     0.900000E-01   1.00800           0
     14545 MEMB     109      POPC     C313     CTL2    -0.180000       12.0110           0
     14546 MEMB     109      POPC     H13X     HAL2     0.900000E-01   1.00800           0
     14547 MEMB     109      POPC     H13Y     HAL2     0.900000E-01   1.00800           0
     14548 MEMB     109      POPC     C314     CTL2    -0.180000       12.0110           0
     14549 MEMB     109      POPC     H14X     HAL2     0.900000E-01   1.00800           0
     14550 MEMB     109      POPC     H14Y     HAL2     0.900000E-01   1.00800           0
     14551 MEMB     109      POPC     C315     CTL2    -0.180000       12.0110           0
     14552 MEMB     109      POPC     H15X     HAL2     0.900000E-01   1.00800           0
     14553 MEMB     109      POPC     H15Y     HAL2     0.900000E-01   1.00800           0
     14554 MEMB     109      POPC     C316     CTL3    -0.270000       12.0110           0
     14555 MEMB     109      POPC     H16X     HAL3     0.900000E-01   1.00800           0
     14556 MEMB     109      POPC     H16Y     HAL3     0.900000E-01   1.00800           0
     14557 MEMB     109      POPC     H16Z     HAL3     0.900000E-01   1.00800           0
     14558 MEMB     110      POPC     N        NTL     -0.600000       14.0070           0
     14559 MEMB     110      POPC     C12      CTL2    -0.100000       12.0110           0
     14560 MEMB     110      POPC     H12A     HL       0.250000       1.00800           0
     14561 MEMB     110      POPC     H12B     HL       0.250000       1.00800           0
     14562 MEMB     110      POPC     C13      CTL5    -0.350000       12.0110           0
     14563 MEMB     110      POPC     H13A     HL       0.250000       1.00800           0
     14564 MEMB     110      POPC     H13B     HL       0.250000       1.00800           0
     14565 MEMB     110      POPC     H13C     HL       0.250000       1.00800           0
     14566 MEMB     110      POPC     C14      CTL5    -0.350000       12.0110           0
     14567 MEMB     110      POPC     H14A     HL       0.250000       1.00800           0
     14568 MEMB     110      POPC     H14B     HL       0.250000       1.00800           0
     14569 MEMB     110      POPC     H14C     HL       0.250000       1.00800           0
     14570 MEMB     110      POPC     C15      CTL5    -0.350000       12.0110           0
     14571 MEMB     110      POPC     H15A     HL       0.250000       1.00800           0
     14572 MEMB     110      POPC     H15B     HL       0.250000       1.00800           0
     14573 MEMB     110      POPC     H15C     HL       0.250000       1.00800           0
     14574 MEMB     110      POPC     C11      CTL2    -0.800000E-01   12.0110           0
     14575 MEMB     110      POPC     H11A     HAL2     0.900000E-01   1.00800           0
     14576 MEMB     110      POPC     H11B     HAL2     0.900000E-01   1.00800           0
     14577 MEMB     110      POPC     P        PL       1.500000       30.9740           0
     14578 MEMB     110      POPC     O13      O2L     -0.780000       15.9994           0
     14579 MEMB     110      POPC     O14      O2L     -0.780000       15.9994           0
     14580 MEMB     110      POPC     O12      OSLP    -0.570000       15.9994           0
     14581 MEMB     110      POPC     O11      OSLP    -0.570000       15.9994           0
     14582 MEMB     110      POPC     C1       CTL2    -0.800000E-01   12.0110           0
     14583 MEMB     110      POPC     HA       HAL2     0.900000E-01   1.00800           0
     14584 MEMB     110      POPC     HB       HAL2     0.900000E-01   1.00800           0
     14585 MEMB     110      POPC     C2       CTL1     0.170000       12.0110           0
     14586 MEMB     110      POPC     HS       HAL1     0.900000E-01   1.00800           0
     14587 MEMB     110      POPC     O21      OSL     -0.490000       15.9994           0
     14588 MEMB     110      POPC     C21      CL       0.900000       12.0110           0
     14589 MEMB     110      POPC     O22      OBL     -0.630000       15.9994           0
     14590 MEMB     110      POPC     C22      CTL2    -0.220000       12.0110           0
     14591 MEMB     110      POPC     H2R      HAL2     0.900000E-01   1.00800           0
     14592 MEMB     110      POPC     H2S      HAL2     0.900000E-01   1.00800           0
     14593 MEMB     110      POPC     C3       CTL2     0.800000E-01   12.0110           0
     14594 MEMB     110      POPC     HX       HAL2     0.900000E-01   1.00800           0
     14595 MEMB     110      POPC     HY       HAL2     0.900000E-01   1.00800           0
     14596 MEMB     110      POPC     O31      OSL     -0.490000       15.9994           0
     14597 MEMB     110      POPC     C31      CL       0.900000       12.0110           0
     14598 MEMB     110      POPC     O32      OBL     -0.630000       15.9994           0
     14599 MEMB     110      POPC     C32      CTL2    -0.220000       12.0110           0
     14600 MEMB     110      POPC     H2X      HAL2     0.900000E-01   1.00800           0
     14601 MEMB     110      POPC     H2Y      HAL2     0.900000E-01   1.00800           0
     14602 MEMB     110      POPC     C23      CTL2    -0.180000       12.0110           0
     14603 MEMB     110      POPC     H3R      HAL2     0.900000E-01   1.00800           0
     14604 MEMB     110      POPC     H3S      HAL2     0.900000E-01   1.00800           0
     14605 MEMB     110      POPC     C24      CTL2    -0.180000       12.0110           0
     14606 MEMB     110      POPC     H4R      HAL2     0.900000E-01   1.00800           0
     14607 MEMB     110      POPC     H4S      HAL2     0.900000E-01   1.00800           0
     14608 MEMB     110      POPC     C25      CTL2    -0.180000       12.0110           0
     14609 MEMB     110      POPC     H5R      HAL2     0.900000E-01   1.00800           0
     14610 MEMB     110      POPC     H5S      HAL2     0.900000E-01   1.00800           0
     14611 MEMB     110      POPC     C26      CTL2    -0.180000       12.0110           0
     14612 MEMB     110      POPC     H6R      HAL2     0.900000E-01   1.00800           0
     14613 MEMB     110      POPC     H6S      HAL2     0.900000E-01   1.00800           0
     14614 MEMB     110      POPC     C27      CTL2    -0.180000       12.0110           0
     14615 MEMB     110      POPC     H7R      HAL2     0.900000E-01   1.00800           0
     14616 MEMB     110      POPC     H7S      HAL2     0.900000E-01   1.00800           0
     14617 MEMB     110      POPC     C28      CTL2    -0.180000       12.0110           0
     14618 MEMB     110      POPC     H8R      HAL2     0.900000E-01   1.00800           0
     14619 MEMB     110      POPC     H8S      HAL2     0.900000E-01   1.00800           0
     14620 MEMB     110      POPC     C29      CEL1    -0.150000       12.0110           0
     14621 MEMB     110      POPC     H91      HEL1     0.150000       1.00800           0
     14622 MEMB     110      POPC     C210     CEL1    -0.150000       12.0110           0
     14623 MEMB     110      POPC     H101     HEL1     0.150000       1.00800           0
     14624 MEMB     110      POPC     C211     CTL2    -0.180000       12.0110           0
     14625 MEMB     110      POPC     H11R     HAL2     0.900000E-01   1.00800           0
     14626 MEMB     110      POPC     H11S     HAL2     0.900000E-01   1.00800           0
     14627 MEMB     110      POPC     C212     CTL2    -0.180000       12.0110           0
     14628 MEMB     110      POPC     H12R     HAL2     0.900000E-01   1.00800           0
     14629 MEMB     110      POPC     H12S     HAL2     0.900000E-01   1.00800           0
     14630 MEMB     110      POPC     C213     CTL2    -0.180000       12.0110           0
     14631 MEMB     110      POPC     H13R     HAL2     0.900000E-01   1.00800           0
     14632 MEMB     110      POPC     H13S     HAL2     0.900000E-01   1.00800           0
     14633 MEMB     110      POPC     C214     CTL2    -0.180000       12.0110           0
     14634 MEMB     110      POPC     H14R     HAL2     0.900000E-01   1.00800           0
     14635 MEMB     110      POPC     H14S     HAL2     0.900000E-01   1.00800           0
     14636 MEMB     110      POPC     C215     CTL2    -0.180000       12.0110           0
     14637 MEMB     110      POPC     H15R     HAL2     0.900000E-01   1.00800           0
     14638 MEMB     110      POPC     H15S     HAL2     0.900000E-01   1.00800           0
     14639 MEMB     110      POPC     C216     CTL2    -0.180000       12.0110           0
     14640 MEMB     110      POPC     H16R     HAL2     0.900000E-01   1.00800           0
     14641 MEMB     110      POPC     H16S     HAL2     0.900000E-01   1.00800           0
     14642 MEMB     110      POPC     C217     CTL2    -0.180000       12.0110           0
     14643 MEMB     110      POPC     H17R     HAL2     0.900000E-01   1.00800           0
     14644 MEMB     110      POPC     H17S     HAL2     0.900000E-01   1.00800           0
     14645 MEMB     110      POPC     C218     CTL3    -0.270000       12.0110           0
     14646 MEMB     110      POPC     H18R     HAL3     0.900000E-01   1.00800           0
     14647 MEMB     110      POPC     H18S     HAL3     0.900000E-01   1.00800           0
     14648 MEMB     110      POPC     H18T     HAL3     0.900000E-01   1.00800           0
     14649 MEMB     110      POPC     C33      CTL2    -0.180000       12.0110           0
     14650 MEMB     110      POPC     H3X      HAL2     0.900000E-01   1.00800           0
     14651 MEMB     110      POPC     H3Y      HAL2     0.900000E-01   1.00800           0
     14652 MEMB     110      POPC     C34      CTL2    -0.180000       12.0110           0
     14653 MEMB     110      POPC     H4X      HAL2     0.900000E-01   1.00800           0
     14654 MEMB     110      POPC     H4Y      HAL2     0.900000E-01   1.00800           0
     14655 MEMB     110      POPC     C35      CTL2    -0.180000       12.0110           0
     14656 MEMB     110      POPC     H5X      HAL2     0.900000E-01   1.00800           0
     14657 MEMB     110      POPC     H5Y      HAL2     0.900000E-01   1.00800           0
     14658 MEMB     110      POPC     C36      CTL2    -0.180000       12.0110           0
     14659 MEMB     110      POPC     H6X      HAL2     0.900000E-01   1.00800           0
     14660 MEMB     110      POPC     H6Y      HAL2     0.900000E-01   1.00800           0
     14661 MEMB     110      POPC     C37      CTL2    -0.180000       12.0110           0
     14662 MEMB     110      POPC     H7X      HAL2     0.900000E-01   1.00800           0
     14663 MEMB     110      POPC     H7Y      HAL2     0.900000E-01   1.00800           0
     14664 MEMB     110      POPC     C38      CTL2    -0.180000       12.0110           0
     14665 MEMB     110      POPC     H8X      HAL2     0.900000E-01   1.00800           0
     14666 MEMB     110      POPC     H8Y      HAL2     0.900000E-01   1.00800           0
     14667 MEMB     110      POPC     C39      CTL2    -0.180000       12.0110           0
     14668 MEMB     110      POPC     H9X      HAL2     0.900000E-01   1.00800           0
     14669 MEMB     110      POPC     H9Y      HAL2     0.900000E-01   1.00800           0
     14670 MEMB     110      POPC     C310     CTL2    -0.180000       12.0110           0
     14671 MEMB     110      POPC     H10X     HAL2     0.900000E-01   1.00800           0
     14672 MEMB     110      POPC     H10Y     HAL2     0.900000E-01   1.00800           0
     14673 MEMB     110      POPC     C311     CTL2    -0.180000       12.0110           0
     14674 MEMB     110      POPC     H11X     HAL2     0.900000E-01   1.00800           0
     14675 MEMB     110      POPC     H11Y     HAL2     0.900000E-01   1.00800           0
     14676 MEMB     110      POPC     C312     CTL2    -0.180000       12.0110           0
     14677 MEMB     110      POPC     H12X     HAL2     0.900000E-01   1.00800           0
     14678 MEMB     110      POPC     H12Y     HAL2     0.900000E-01   1.00800           0
     14679 MEMB     110      POPC     C313     CTL2    -0.180000       12.0110           0
     14680 MEMB     110      POPC     H13X     HAL2     0.900000E-01   1.00800           0
     14681 MEMB     110      POPC     H13Y     HAL2     0.900000E-01   1.00800           0
     14682 MEMB     110      POPC     C314     CTL2    -0.180000       12.0110           0
     14683 MEMB     110      POPC     H14X     HAL2     0.900000E-01   1.00800           0
     14684 MEMB     110      POPC     H14Y     HAL2     0.900000E-01   1.00800           0
     14685 MEMB     110      POPC     C315     CTL2    -0.180000       12.0110           0
     14686 MEMB     110      POPC     H15X     HAL2     0.900000E-01   1.00800           0
     14687 MEMB     110      POPC     H15Y     HAL2     0.900000E-01   1.00800           0
     14688 MEMB     110      POPC     C316     CTL3    -0.270000       12.0110           0
     14689 MEMB     110      POPC     H16X     HAL3     0.900000E-01   1.00800           0
     14690 MEMB     110      POPC     H16Y     HAL3     0.900000E-01   1.00800           0
     14691 MEMB     110      POPC     H16Z     HAL3     0.900000E-01   1.00800           0
     14692 MEMB     111      POPS     N        NH3L    -0.300000       14.0070           0
     14693 MEMB     111      POPS     HN1      HCL      0.330000       1.00800           0
     14694 MEMB     111      POPS     HN2      HCL      0.330000       1.00800           0
     14695 MEMB     111      POPS     HN3      HCL      0.330000       1.00800           0
     14696 MEMB     111      POPS     C12      CTL1     0.210000       12.0110           0
     14697 MEMB     111      POPS     H12A     HBL      0.100000       1.00800           0
     14698 MEMB     111      POPS     C13      CCL      0.340000       12.0110           0
     14699 MEMB     111      POPS     O13A     OCL     -0.670000       15.9994           0
     14700 MEMB     111      POPS     O13B     OCL     -0.670000       15.9994           0
     14701 MEMB     111      POPS     C11      CTL2    -0.800000E-01   12.0110           0
     14702 MEMB     111      POPS     H11A     HAL2     0.900000E-01   1.00800           0
     14703 MEMB     111      POPS     H11B     HAL2     0.900000E-01   1.00800           0
     14704 MEMB     111      POPS     P        PL       1.500000       30.9740           0
     14705 MEMB     111      POPS     O13      O2L     -0.780000       15.9994           0
     14706 MEMB     111      POPS     O14      O2L     -0.780000       15.9994           0
     14707 MEMB     111      POPS     O12      OSLP    -0.570000       15.9994           0
     14708 MEMB     111      POPS     O11      OSLP    -0.570000       15.9994           0
     14709 MEMB     111      POPS     C1       CTL2    -0.800000E-01   12.0110           0
     14710 MEMB     111      POPS     HA       HAL2     0.900000E-01   1.00800           0
     14711 MEMB     111      POPS     HB       HAL2     0.900000E-01   1.00800           0
     14712 MEMB     111      POPS     C2       CTL1     0.170000       12.0110           0
     14713 MEMB     111      POPS     HS       HAL1     0.900000E-01   1.00800           0
     14714 MEMB     111      POPS     O21      OSL     -0.490000       15.9994           0
     14715 MEMB     111      POPS     C21      CL       0.900000       12.0110           0
     14716 MEMB     111      POPS     O22      OBL     -0.630000       15.9994           0
     14717 MEMB     111      POPS     C22      CTL2    -0.220000       12.0110           0
     14718 MEMB     111      POPS     H2R      HAL2     0.900000E-01   1.00800           0
     14719 MEMB     111      POPS     H2S      HAL2     0.900000E-01   1.00800           0
     14720 MEMB     111      POPS     C3       CTL2     0.800000E-01   12.0110           0
     14721 MEMB     111      POPS     HX       HAL2     0.900000E-01   1.00800           0
     14722 MEMB     111      POPS     HY       HAL2     0.900000E-01   1.00800           0
     14723 MEMB     111      POPS     O31      OSL     -0.490000       15.9994           0
     14724 MEMB     111      POPS     C31      CL       0.900000       12.0110           0
     14725 MEMB     111      POPS     O32      OBL     -0.630000       15.9994           0
     14726 MEMB     111      POPS     C32      CTL2    -0.220000       12.0110           0
     14727 MEMB     111      POPS     H2X      HAL2     0.900000E-01   1.00800           0
     14728 MEMB     111      POPS     H2Y      HAL2     0.900000E-01   1.00800           0
     14729 MEMB     111      POPS     C23      CTL2    -0.180000       12.0110           0
     14730 MEMB     111      POPS     H3R      HAL2     0.900000E-01   1.00800           0
     14731 MEMB     111      POPS     H3S      HAL2     0.900000E-01   1.00800           0
     14732 MEMB     111      POPS     C24      CTL2    -0.180000       12.0110           0
     14733 MEMB     111      POPS     H4R      HAL2     0.900000E-01   1.00800           0
     14734 MEMB     111      POPS     H4S      HAL2     0.900000E-01   1.00800           0
     14735 MEMB     111      POPS     C25      CTL2    -0.180000       12.0110           0
     14736 MEMB     111      POPS     H5R      HAL2     0.900000E-01   1.00800           0
     14737 MEMB     111      POPS     H5S      HAL2     0.900000E-01   1.00800           0
     14738 MEMB     111      POPS     C26      CTL2    -0.180000       12.0110           0
     14739 MEMB     111      POPS     H6R      HAL2     0.900000E-01   1.00800           0
     14740 MEMB     111      POPS     H6S      HAL2     0.900000E-01   1.00800           0
     14741 MEMB     111      POPS     C27      CTL2    -0.180000       12.0110           0
     14742 MEMB     111      POPS     H7R      HAL2     0.900000E-01   1.00800           0
     14743 MEMB     111      POPS     H7S      HAL2     0.900000E-01   1.00800           0
     14744 MEMB     111      POPS     C28      CTL2    -0.180000       12.0110           0
     14745 MEMB     111      POPS     H8R      HAL2     0.900000E-01   1.00800           0
     14746 MEMB     111      POPS     H8S      HAL2     0.900000E-01   1.00800           0
     14747 MEMB     111      POPS     C29      CEL1    -0.150000       12.0110           0
     14748 MEMB     111      POPS     H91      HEL1     0.150000       1.00800           0
     14749 MEMB     111      POPS     C210     CEL1    -0.150000       12.0110           0
     14750 MEMB     111      POPS     H101     HEL1     0.150000       1.00800           0
     14751 MEMB     111      POPS     C211     CTL2    -0.180000       12.0110           0
     14752 MEMB     111      POPS     H11R     HAL2     0.900000E-01   1.00800           0
     14753 MEMB     111      POPS     H11S     HAL2     0.900000E-01   1.00800           0
     14754 MEMB     111      POPS     C212     CTL2    -0.180000       12.0110           0
     14755 MEMB     111      POPS     H12R     HAL2     0.900000E-01   1.00800           0
     14756 MEMB     111      POPS     H12S     HAL2     0.900000E-01   1.00800           0
     14757 MEMB     111      POPS     C213     CTL2    -0.180000       12.0110           0
     14758 MEMB     111      POPS     H13R     HAL2     0.900000E-01   1.00800           0
     14759 MEMB     111      POPS     H13S     HAL2     0.900000E-01   1.00800           0
     14760 MEMB     111      POPS     C214     CTL2    -0.180000       12.0110           0
     14761 MEMB     111      POPS     H14R     HAL2     0.900000E-01   1.00800           0
     14762 MEMB     111      POPS     H14S     HAL2     0.900000E-01   1.00800           0
     14763 MEMB     111      POPS     C215     CTL2    -0.180000       12.0110           0
     14764 MEMB     111      POPS     H15R     HAL2     0.900000E-01   1.00800           0
     14765 MEMB     111      POPS     H15S     HAL2     0.900000E-01   1.00800           0
     14766 MEMB     111      POPS     C216     CTL2    -0.180000       12.0110           0
     14767 MEMB     111      POPS     H16R     HAL2     0.900000E-01   1.00800           0
     14768 MEMB     111      POPS     H16S     HAL2     0.900000E-01   1.00800           0
     14769 MEMB     111      POPS     C217     CTL2    -0.180000       12.0110           0
     14770 MEMB     111      POPS     H17R     HAL2     0.900000E-01   1.00800           0
     14771 MEMB     111      POPS     H17S     HAL2     0.900000E-01   1.00800           0
     14772 MEMB     111      POPS     C218     CTL3    -0.270000       12.0110           0
     14773 MEMB     111      POPS     H18R     HAL3     0.900000E-01   1.00800           0
     14774 MEMB     111      POPS     H18S     HAL3     0.900000E-01   1.00800           0
     14775 MEMB     111      POPS     H18T     HAL3     0.900000E-01   1.00800           0
     14776 MEMB     111      POPS     C33      CTL2    -0.180000       12.0110           0
     14777 MEMB     111      POPS     H3X      HAL2     0.900000E-01   1.00800           0
     14778 MEMB     111      POPS     H3Y      HAL2     0.900000E-01   1.00800           0
     14779 MEMB     111      POPS     C34      CTL2    -0.180000       12.0110           0
     14780 MEMB     111      POPS     H4X      HAL2     0.900000E-01   1.00800           0
     14781 MEMB     111      POPS     H4Y      HAL2     0.900000E-01   1.00800           0
     14782 MEMB     111      POPS     C35      CTL2    -0.180000       12.0110           0
     14783 MEMB     111      POPS     H5X      HAL2     0.900000E-01   1.00800           0
     14784 MEMB     111      POPS     H5Y      HAL2     0.900000E-01   1.00800           0
     14785 MEMB     111      POPS     C36      CTL2    -0.180000       12.0110           0
     14786 MEMB     111      POPS     H6X      HAL2     0.900000E-01   1.00800           0
     14787 MEMB     111      POPS     H6Y      HAL2     0.900000E-01   1.00800           0
     14788 MEMB     111      POPS     C37      CTL2    -0.180000       12.0110           0
     14789 MEMB     111      POPS     H7X      HAL2     0.900000E-01   1.00800           0
     14790 MEMB     111      POPS     H7Y      HAL2     0.900000E-01   1.00800           0
     14791 MEMB     111      POPS     C38      CTL2    -0.180000       12.0110           0
     14792 MEMB     111      POPS     H8X      HAL2     0.900000E-01   1.00800           0
     14793 MEMB     111      POPS     H8Y      HAL2     0.900000E-01   1.00800           0
     14794 MEMB     111      POPS     C39      CTL2    -0.180000       12.0110           0
     14795 MEMB     111      POPS     H9X      HAL2     0.900000E-01   1.00800           0
     14796 MEMB     111      POPS     H9Y      HAL2     0.900000E-01   1.00800           0
     14797 MEMB     111      POPS     C310     CTL2    -0.180000       12.0110           0
     14798 MEMB     111      POPS     H10X     HAL2     0.900000E-01   1.00800           0
     14799 MEMB     111      POPS     H10Y     HAL2     0.900000E-01   1.00800           0
     14800 MEMB     111      POPS     C311     CTL2    -0.180000       12.0110           0
     14801 MEMB     111      POPS     H11X     HAL2     0.900000E-01   1.00800           0
     14802 MEMB     111      POPS     H11Y     HAL2     0.900000E-01   1.00800           0
     14803 MEMB     111      POPS     C312     CTL2    -0.180000       12.0110           0
     14804 MEMB     111      POPS     H12X     HAL2     0.900000E-01   1.00800           0
     14805 MEMB     111      POPS     H12Y     HAL2     0.900000E-01   1.00800           0
     14806 MEMB     111      POPS     C313     CTL2    -0.180000       12.0110           0
     14807 MEMB     111      POPS     H13X     HAL2     0.900000E-01   1.00800           0
     14808 MEMB     111      POPS     H13Y     HAL2     0.900000E-01   1.00800           0
     14809 MEMB     111      POPS     C314     CTL2    -0.180000       12.0110           0
     14810 MEMB     111      POPS     H14X     HAL2     0.900000E-01   1.00800           0
     14811 MEMB     111      POPS     H14Y     HAL2     0.900000E-01   1.00800           0
     14812 MEMB     111      POPS     C315     CTL2    -0.180000       12.0110           0
     14813 MEMB     111      POPS     H15X     HAL2     0.900000E-01   1.00800           0
     14814 MEMB     111      POPS     H15Y     HAL2     0.900000E-01   1.00800           0
     14815 MEMB     111      POPS     C316     CTL3    -0.270000       12.0110           0
     14816 MEMB     111      POPS     H16X     HAL3     0.900000E-01   1.00800           0
     14817 MEMB     111      POPS     H16Y     HAL3     0.900000E-01   1.00800           0
     14818 MEMB     111      POPS     H16Z     HAL3     0.900000E-01   1.00800           0
     14819 MEMB     112      POPC     N        NTL     -0.600000       14.0070           0
     14820 MEMB     112      POPC     C12      CTL2    -0.100000       12.0110           0
     14821 MEMB     112      POPC     H12A     HL       0.250000       1.00800           0
     14822 MEMB     112      POPC     H12B     HL       0.250000       1.00800           0
     14823 MEMB     112      POPC     C13      CTL5    -0.350000       12.0110           0
     14824 MEMB     112      POPC     H13A     HL       0.250000       1.00800           0
     14825 MEMB     112      POPC     H13B     HL       0.250000       1.00800           0
     14826 MEMB     112      POPC     H13C     HL       0.250000       1.00800           0
     14827 MEMB     112      POPC     C14      CTL5    -0.350000       12.0110           0
     14828 MEMB     112      POPC     H14A     HL       0.250000       1.00800           0
     14829 MEMB     112      POPC     H14B     HL       0.250000       1.00800           0
     14830 MEMB     112      POPC     H14C     HL       0.250000       1.00800           0
     14831 MEMB     112      POPC     C15      CTL5    -0.350000       12.0110           0
     14832 MEMB     112      POPC     H15A     HL       0.250000       1.00800           0
     14833 MEMB     112      POPC     H15B     HL       0.250000       1.00800           0
     14834 MEMB     112      POPC     H15C     HL       0.250000       1.00800           0
     14835 MEMB     112      POPC     C11      CTL2    -0.800000E-01   12.0110           0
     14836 MEMB     112      POPC     H11A     HAL2     0.900000E-01   1.00800           0
     14837 MEMB     112      POPC     H11B     HAL2     0.900000E-01   1.00800           0
     14838 MEMB     112      POPC     P        PL       1.500000       30.9740           0
     14839 MEMB     112      POPC     O13      O2L     -0.780000       15.9994           0
     14840 MEMB     112      POPC     O14      O2L     -0.780000       15.9994           0
     14841 MEMB     112      POPC     O12      OSLP    -0.570000       15.9994           0
     14842 MEMB     112      POPC     O11      OSLP    -0.570000       15.9994           0
     14843 MEMB     112      POPC     C1       CTL2    -0.800000E-01   12.0110           0
     14844 MEMB     112      POPC     HA       HAL2     0.900000E-01   1.00800           0
     14845 MEMB     112      POPC     HB       HAL2     0.900000E-01   1.00800           0
     14846 MEMB     112      POPC     C2       CTL1     0.170000       12.0110           0
     14847 MEMB     112      POPC     HS       HAL1     0.900000E-01   1.00800           0
     14848 MEMB     112      POPC     O21      OSL     -0.490000       15.9994           0
     14849 MEMB     112      POPC     C21      CL       0.900000       12.0110           0
     14850 MEMB     112      POPC     O22      OBL     -0.630000       15.9994           0
     14851 MEMB     112      POPC     C22      CTL2    -0.220000       12.0110           0
     14852 MEMB     112      POPC     H2R      HAL2     0.900000E-01   1.00800           0
     14853 MEMB     112      POPC     H2S      HAL2     0.900000E-01   1.00800           0
     14854 MEMB     112      POPC     C3       CTL2     0.800000E-01   12.0110           0
     14855 MEMB     112      POPC     HX       HAL2     0.900000E-01   1.00800           0
     14856 MEMB     112      POPC     HY       HAL2     0.900000E-01   1.00800           0
     14857 MEMB     112      POPC     O31      OSL     -0.490000       15.9994           0
     14858 MEMB     112      POPC     C31      CL       0.900000       12.0110           0
     14859 MEMB     112      POPC     O32      OBL     -0.630000       15.9994           0
     14860 MEMB     112      POPC     C32      CTL2    -0.220000       12.0110           0
     14861 MEMB     112      POPC     H2X      HAL2     0.900000E-01   1.00800           0
     14862 MEMB     112      POPC     H2Y      HAL2     0.900000E-01   1.00800           0
     14863 MEMB     112      POPC     C23      CTL2    -0.180000       12.0110           0
     14864 MEMB     112      POPC     H3R      HAL2     0.900000E-01   1.00800           0
     14865 MEMB     112      POPC     H3S      HAL2     0.900000E-01   1.00800           0
     14866 MEMB     112      POPC     C24      CTL2    -0.180000       12.0110           0
     14867 MEMB     112      POPC     H4R      HAL2     0.900000E-01   1.00800           0
     14868 MEMB     112      POPC     H4S      HAL2     0.900000E-01   1.00800           0
     14869 MEMB     112      POPC     C25      CTL2    -0.180000       12.0110           0
     14870 MEMB     112      POPC     H5R      HAL2     0.900000E-01   1.00800           0
     14871 MEMB     112      POPC     H5S      HAL2     0.900000E-01   1.00800           0
     14872 MEMB     112      POPC     C26      CTL2    -0.180000       12.0110           0
     14873 MEMB     112      POPC     H6R      HAL2     0.900000E-01   1.00800           0
     14874 MEMB     112      POPC     H6S      HAL2     0.900000E-01   1.00800           0
     14875 MEMB     112      POPC     C27      CTL2    -0.180000       12.0110           0
     14876 MEMB     112      POPC     H7R      HAL2     0.900000E-01   1.00800           0
     14877 MEMB     112      POPC     H7S      HAL2     0.900000E-01   1.00800           0
     14878 MEMB     112      POPC     C28      CTL2    -0.180000       12.0110           0
     14879 MEMB     112      POPC     H8R      HAL2     0.900000E-01   1.00800           0
     14880 MEMB     112      POPC     H8S      HAL2     0.900000E-01   1.00800           0
     14881 MEMB     112      POPC     C29      CEL1    -0.150000       12.0110           0
     14882 MEMB     112      POPC     H91      HEL1     0.150000       1.00800           0
     14883 MEMB     112      POPC     C210     CEL1    -0.150000       12.0110           0
     14884 MEMB     112      POPC     H101     HEL1     0.150000       1.00800           0
     14885 MEMB     112      POPC     C211     CTL2    -0.180000       12.0110           0
     14886 MEMB     112      POPC     H11R     HAL2     0.900000E-01   1.00800           0
     14887 MEMB     112      POPC     H11S     HAL2     0.900000E-01   1.00800           0
     14888 MEMB     112      POPC     C212     CTL2    -0.180000       12.0110           0
     14889 MEMB     112      POPC     H12R     HAL2     0.900000E-01   1.00800           0
     14890 MEMB     112      POPC     H12S     HAL2     0.900000E-01   1.00800           0
     14891 MEMB     112      POPC     C213     CTL2    -0.180000       12.0110           0
     14892 MEMB     112      POPC     H13R     HAL2     0.900000E-01   1.00800           0
     14893 MEMB     112      POPC     H13S     HAL2     0.900000E-01   1.00800           0
     14894 MEMB     112      POPC     C214     CTL2    -0.180000       12.0110           0
     14895 MEMB     112      POPC     H14R     HAL2     0.900000E-01   1.00800           0
     14896 MEMB     112      POPC     H14S     HAL2     0.900000E-01   1.00800           0
     14897 MEMB     112      POPC     C215     CTL2    -0.180000       12.0110           0
     14898 MEMB     112      POPC     H15R     HAL2     0.900000E-01   1.00800           0
     14899 MEMB     112      POPC     H15S     HAL2     0.900000E-01   1.00800           0
     14900 MEMB     112      POPC     C216     CTL2    -0.180000       12.0110           0
     14901 MEMB     112      POPC     H16R     HAL2     0.900000E-01   1.00800           0
     14902 MEMB     112      POPC     H16S     HAL2     0.900000E-01   1.00800           0
     14903 MEMB     112      POPC     C217     CTL2    -0.180000       12.0110           0
     14904 MEMB     112      POPC     H17R     HAL2     0.900000E-01   1.00800           0
     14905 MEMB     112      POPC     H17S     HAL2     0.900000E-01   1.00800           0
     14906 MEMB     112      POPC     C218     CTL3    -0.270000       12.0110           0
     14907 MEMB     112      POPC     H18R     HAL3     0.900000E-01   1.00800           0
     14908 MEMB     112      POPC     H18S     HAL3     0.900000E-01   1.00800           0
     14909 MEMB     112      POPC     H18T     HAL3     0.900000E-01   1.00800           0
     14910 MEMB     112      POPC     C33      CTL2    -0.180000       12.0110           0
     14911 MEMB     112      POPC     H3X      HAL2     0.900000E-01   1.00800           0
     14912 MEMB     112      POPC     H3Y      HAL2     0.900000E-01   1.00800           0
     14913 MEMB     112      POPC     C34      CTL2    -0.180000       12.0110           0
     14914 MEMB     112      POPC     H4X      HAL2     0.900000E-01   1.00800           0
     14915 MEMB     112      POPC     H4Y      HAL2     0.900000E-01   1.00800           0
     14916 MEMB     112      POPC     C35      CTL2    -0.180000       12.0110           0
     14917 MEMB     112      POPC     H5X      HAL2     0.900000E-01   1.00800           0
     14918 MEMB     112      POPC     H5Y      HAL2     0.900000E-01   1.00800           0
     14919 MEMB     112      POPC     C36      CTL2    -0.180000       12.0110           0
     14920 MEMB     112      POPC     H6X      HAL2     0.900000E-01   1.00800           0
     14921 MEMB     112      POPC     H6Y      HAL2     0.900000E-01   1.00800           0
     14922 MEMB     112      POPC     C37      CTL2    -0.180000       12.0110           0
     14923 MEMB     112      POPC     H7X      HAL2     0.900000E-01   1.00800           0
     14924 MEMB     112      POPC     H7Y      HAL2     0.900000E-01   1.00800           0
     14925 MEMB     112      POPC     C38      CTL2    -0.180000       12.0110           0
     14926 MEMB     112      POPC     H8X      HAL2     0.900000E-01   1.00800           0
     14927 MEMB     112      POPC     H8Y      HAL2     0.900000E-01   1.00800           0
     14928 MEMB     112      POPC     C39      CTL2    -0.180000       12.0110           0
     14929 MEMB     112      POPC     H9X      HAL2     0.900000E-01   1.00800           0
     14930 MEMB     112      POPC     H9Y      HAL2     0.900000E-01   1.00800           0
     14931 MEMB     112      POPC     C310     CTL2    -0.180000       12.0110           0
     14932 MEMB     112      POPC     H10X     HAL2     0.900000E-01   1.00800           0
     14933 MEMB     112      POPC     H10Y     HAL2     0.900000E-01   1.00800           0
     14934 MEMB     112      POPC     C311     CTL2    -0.180000       12.0110           0
     14935 MEMB     112      POPC     H11X     HAL2     0.900000E-01   1.00800           0
     14936 MEMB     112      POPC     H11Y     HAL2     0.900000E-01   1.00800           0
     14937 MEMB     112      POPC     C312     CTL2    -0.180000       12.0110           0
     14938 MEMB     112      POPC     H12X     HAL2     0.900000E-01   1.00800           0
     14939 MEMB     112      POPC     H12Y     HAL2     0.900000E-01   1.00800           0
     14940 MEMB     112      POPC     C313     CTL2    -0.180000       12.0110           0
     14941 MEMB     112      POPC     H13X     HAL2     0.900000E-01   1.00800           0
     14942 MEMB     112      POPC     H13Y     HAL2     0.900000E-01   1.00800           0
     14943 MEMB     112      POPC     C314     CTL2    -0.180000       12.0110           0
     14944 MEMB     112      POPC     H14X     HAL2     0.900000E-01   1.00800           0
     14945 MEMB     112      POPC     H14Y     HAL2     0.900000E-01   1.00800           0
     14946 MEMB     112      POPC     C315     CTL2    -0.180000       12.0110           0
     14947 MEMB     112      POPC     H15X     HAL2     0.900000E-01   1.00800           0
     14948 MEMB     112      POPC     H15Y     HAL2     0.900000E-01   1.00800           0
     14949 MEMB     112      POPC     C316     CTL3    -0.270000       12.0110           0
     14950 MEMB     112      POPC     H16X     HAL3     0.900000E-01   1.00800           0
     14951 MEMB     112      POPC     H16Y     HAL3     0.900000E-01   1.00800           0
     14952 MEMB     112      POPC     H16Z     HAL3     0.900000E-01   1.00800           0
     14953 MEMB     113      POPC     N        NTL     -0.600000       14.0070           0
     14954 MEMB     113      POPC     C12      CTL2    -0.100000       12.0110           0
     14955 MEMB     113      POPC     H12A     HL       0.250000       1.00800           0
     14956 MEMB     113      POPC     H12B     HL       0.250000       1.00800           0
     14957 MEMB     113      POPC     C13      CTL5    -0.350000       12.0110           0
     14958 MEMB     113      POPC     H13A     HL       0.250000       1.00800           0
     14959 MEMB     113      POPC     H13B     HL       0.250000       1.00800           0
     14960 MEMB     113      POPC     H13C     HL       0.250000       1.00800           0
     14961 MEMB     113      POPC     C14      CTL5    -0.350000       12.0110           0
     14962 MEMB     113      POPC     H14A     HL       0.250000       1.00800           0
     14963 MEMB     113      POPC     H14B     HL       0.250000       1.00800           0
     14964 MEMB     113      POPC     H14C     HL       0.250000       1.00800           0
     14965 MEMB     113      POPC     C15      CTL5    -0.350000       12.0110           0
     14966 MEMB     113      POPC     H15A     HL       0.250000       1.00800           0
     14967 MEMB     113      POPC     H15B     HL       0.250000       1.00800           0
     14968 MEMB     113      POPC     H15C     HL       0.250000       1.00800           0
     14969 MEMB     113      POPC     C11      CTL2    -0.800000E-01   12.0110           0
     14970 MEMB     113      POPC     H11A     HAL2     0.900000E-01   1.00800           0
     14971 MEMB     113      POPC     H11B     HAL2     0.900000E-01   1.00800           0
     14972 MEMB     113      POPC     P        PL       1.500000       30.9740           0
     14973 MEMB     113      POPC     O13      O2L     -0.780000       15.9994           0
     14974 MEMB     113      POPC     O14      O2L     -0.780000       15.9994           0
     14975 MEMB     113      POPC     O12      OSLP    -0.570000       15.9994           0
     14976 MEMB     113      POPC     O11      OSLP    -0.570000       15.9994           0
     14977 MEMB     113      POPC     C1       CTL2    -0.800000E-01   12.0110           0
     14978 MEMB     113      POPC     HA       HAL2     0.900000E-01   1.00800           0
     14979 MEMB     113      POPC     HB       HAL2     0.900000E-01   1.00800           0
     14980 MEMB     113      POPC     C2       CTL1     0.170000       12.0110           0
     14981 MEMB     113      POPC     HS       HAL1     0.900000E-01   1.00800           0
     14982 MEMB     113      POPC     O21      OSL     -0.490000       15.9994           0
     14983 MEMB     113      POPC     C21      CL       0.900000       12.0110           0
     14984 MEMB     113      POPC     O22      OBL     -0.630000       15.9994           0
     14985 MEMB     113      POPC     C22      CTL2    -0.220000       12.0110           0
     14986 MEMB     113      POPC     H2R      HAL2     0.900000E-01   1.00800           0
     14987 MEMB     113      POPC     H2S      HAL2     0.900000E-01   1.00800           0
     14988 MEMB     113      POPC     C3       CTL2     0.800000E-01   12.0110           0
     14989 MEMB     113      POPC     HX       HAL2     0.900000E-01   1.00800           0
     14990 MEMB     113      POPC     HY       HAL2     0.900000E-01   1.00800           0
     14991 MEMB     113      POPC     O31      OSL     -0.490000       15.9994           0
     14992 MEMB     113      POPC     C31      CL       0.900000       12.0110           0
     14993 MEMB     113      POPC     O32      OBL     -0.630000       15.9994           0
     14994 MEMB     113      POPC     C32      CTL2    -0.220000       12.0110           0
     14995 MEMB     113      POPC     H2X      HAL2     0.900000E-01   1.00800           0
     14996 MEMB     113      POPC     H2Y      HAL2     0.900000E-01   1.00800           0
     14997 MEMB     113      POPC     C23      CTL2    -0.180000       12.0110           0
     14998 MEMB     113      POPC     H3R      HAL2     0.900000E-01   1.00800           0
     14999 MEMB     113      POPC     H3S      HAL2     0.900000E-01   1.00800           0
     15000 MEMB     113      POPC     C24      CTL2    -0.180000       12.0110           0
     15001 MEMB     113      POPC     H4R      HAL2     0.900000E-01   1.00800           0
     15002 MEMB     113      POPC     H4S      HAL2     0.900000E-01   1.00800           0
     15003 MEMB     113      POPC     C25      CTL2    -0.180000       12.0110           0
     15004 MEMB     113      POPC     H5R      HAL2     0.900000E-01   1.00800           0
     15005 MEMB     113      POPC     H5S      HAL2     0.900000E-01   1.00800           0
     15006 MEMB     113      POPC     C26      CTL2    -0.180000       12.0110           0
     15007 MEMB     113      POPC     H6R      HAL2     0.900000E-01   1.00800           0
     15008 MEMB     113      POPC     H6S      HAL2     0.900000E-01   1.00800           0
     15009 MEMB     113      POPC     C27      CTL2    -0.180000       12.0110           0
     15010 MEMB     113      POPC     H7R      HAL2     0.900000E-01   1.00800           0
     15011 MEMB     113      POPC     H7S      HAL2     0.900000E-01   1.00800           0
     15012 MEMB     113      POPC     C28      CTL2    -0.180000       12.0110           0
     15013 MEMB     113      POPC     H8R      HAL2     0.900000E-01   1.00800           0
     15014 MEMB     113      POPC     H8S      HAL2     0.900000E-01   1.00800           0
     15015 MEMB     113      POPC     C29      CEL1    -0.150000       12.0110           0
     15016 MEMB     113      POPC     H91      HEL1     0.150000       1.00800           0
     15017 MEMB     113      POPC     C210     CEL1    -0.150000       12.0110           0
     15018 MEMB     113      POPC     H101     HEL1     0.150000       1.00800           0
     15019 MEMB     113      POPC     C211     CTL2    -0.180000       12.0110           0
     15020 MEMB     113      POPC     H11R     HAL2     0.900000E-01   1.00800           0
     15021 MEMB     113      POPC     H11S     HAL2     0.900000E-01   1.00800           0
     15022 MEMB     113      POPC     C212     CTL2    -0.180000       12.0110           0
     15023 MEMB     113      POPC     H12R     HAL2     0.900000E-01   1.00800           0
     15024 MEMB     113      POPC     H12S     HAL2     0.900000E-01   1.00800           0
     15025 MEMB     113      POPC     C213     CTL2    -0.180000       12.0110           0
     15026 MEMB     113      POPC     H13R     HAL2     0.900000E-01   1.00800           0
     15027 MEMB     113      POPC     H13S     HAL2     0.900000E-01   1.00800           0
     15028 MEMB     113      POPC     C214     CTL2    -0.180000       12.0110           0
     15029 MEMB     113      POPC     H14R     HAL2     0.900000E-01   1.00800           0
     15030 MEMB     113      POPC     H14S     HAL2     0.900000E-01   1.00800           0
     15031 MEMB     113      POPC     C215     CTL2    -0.180000       12.0110           0
     15032 MEMB     113      POPC     H15R     HAL2     0.900000E-01   1.00800           0
     15033 MEMB     113      POPC     H15S     HAL2     0.900000E-01   1.00800           0
     15034 MEMB     113      POPC     C216     CTL2    -0.180000       12.0110           0
     15035 MEMB     113      POPC     H16R     HAL2     0.900000E-01   1.00800           0
     15036 MEMB     113      POPC     H16S     HAL2     0.900000E-01   1.00800           0
     15037 MEMB     113      POPC     C217     CTL2    -0.180000       12.0110           0
     15038 MEMB     113      POPC     H17R     HAL2     0.900000E-01   1.00800           0
     15039 MEMB     113      POPC     H17S     HAL2     0.900000E-01   1.00800           0
     15040 MEMB     113      POPC     C218     CTL3    -0.270000       12.0110           0
     15041 MEMB     113      POPC     H18R     HAL3     0.900000E-01   1.00800           0
     15042 MEMB     113      POPC     H18S     HAL3     0.900000E-01   1.00800           0
     15043 MEMB     113      POPC     H18T     HAL3     0.900000E-01   1.00800           0
     15044 MEMB     113      POPC     C33      CTL2    -0.180000       12.0110           0
     15045 MEMB     113      POPC     H3X      HAL2     0.900000E-01   1.00800           0
     15046 MEMB     113      POPC     H3Y      HAL2     0.900000E-01   1.00800           0
     15047 MEMB     113      POPC     C34      CTL2    -0.180000       12.0110           0
     15048 MEMB     113      POPC     H4X      HAL2     0.900000E-01   1.00800           0
     15049 MEMB     113      POPC     H4Y      HAL2     0.900000E-01   1.00800           0
     15050 MEMB     113      POPC     C35      CTL2    -0.180000       12.0110           0
     15051 MEMB     113      POPC     H5X      HAL2     0.900000E-01   1.00800           0
     15052 MEMB     113      POPC     H5Y      HAL2     0.900000E-01   1.00800           0
     15053 MEMB     113      POPC     C36      CTL2    -0.180000       12.0110           0
     15054 MEMB     113      POPC     H6X      HAL2     0.900000E-01   1.00800           0
     15055 MEMB     113      POPC     H6Y      HAL2     0.900000E-01   1.00800           0
     15056 MEMB     113      POPC     C37      CTL2    -0.180000       12.0110           0
     15057 MEMB     113      POPC     H7X      HAL2     0.900000E-01   1.00800           0
     15058 MEMB     113      POPC     H7Y      HAL2     0.900000E-01   1.00800           0
     15059 MEMB     113      POPC     C38      CTL2    -0.180000       12.0110           0
     15060 MEMB     113      POPC     H8X      HAL2     0.900000E-01   1.00800           0
     15061 MEMB     113      POPC     H8Y      HAL2     0.900000E-01   1.00800           0
     15062 MEMB     113      POPC     C39      CTL2    -0.180000       12.0110           0
     15063 MEMB     113      POPC     H9X      HAL2     0.900000E-01   1.00800           0
     15064 MEMB     113      POPC     H9Y      HAL2     0.900000E-01   1.00800           0
     15065 MEMB     113      POPC     C310     CTL2    -0.180000       12.0110           0
     15066 MEMB     113      POPC     H10X     HAL2     0.900000E-01   1.00800           0
     15067 MEMB     113      POPC     H10Y     HAL2     0.900000E-01   1.00800           0
     15068 MEMB     113      POPC     C311     CTL2    -0.180000       12.0110           0
     15069 MEMB     113      POPC     H11X     HAL2     0.900000E-01   1.00800           0
     15070 MEMB     113      POPC     H11Y     HAL2     0.900000E-01   1.00800           0
     15071 MEMB     113      POPC     C312     CTL2    -0.180000       12.0110           0
     15072 MEMB     113      POPC     H12X     HAL2     0.900000E-01   1.00800           0
     15073 MEMB     113      POPC     H12Y     HAL2     0.900000E-01   1.00800           0
     15074 MEMB     113      POPC     C313     CTL2    -0.180000       12.0110           0
     15075 MEMB     113      POPC     H13X     HAL2     0.900000E-01   1.00800           0
     15076 MEMB     113      POPC     H13Y     HAL2     0.900000E-01   1.00800           0
     15077 MEMB     113      POPC     C314     CTL2    -0.180000       12.0110           0
     15078 MEMB     113      POPC     H14X     HAL2     0.900000E-01   1.00800           0
     15079 MEMB     113      POPC     H14Y     HAL2     0.900000E-01   1.00800           0
     15080 MEMB     113      POPC     C315     CTL2    -0.180000       12.0110           0
     15081 MEMB     113      POPC     H15X     HAL2     0.900000E-01   1.00800           0
     15082 MEMB     113      POPC     H15Y     HAL2     0.900000E-01   1.00800           0
     15083 MEMB     113      POPC     C316     CTL3    -0.270000       12.0110           0
     15084 MEMB     113      POPC     H16X     HAL3     0.900000E-01   1.00800           0
     15085 MEMB     113      POPC     H16Y     HAL3     0.900000E-01   1.00800           0
     15086 MEMB     113      POPC     H16Z     HAL3     0.900000E-01   1.00800           0
     15087 MEMB     114      POPS     N        NH3L    -0.300000       14.0070           0
     15088 MEMB     114      POPS     HN1      HCL      0.330000       1.00800           0
     15089 MEMB     114      POPS     HN2      HCL      0.330000       1.00800           0
     15090 MEMB     114      POPS     HN3      HCL      0.330000       1.00800           0
     15091 MEMB     114      POPS     C12      CTL1     0.210000       12.0110           0
     15092 MEMB     114      POPS     H12A     HBL      0.100000       1.00800           0
     15093 MEMB     114      POPS     C13      CCL      0.340000       12.0110           0
     15094 MEMB     114      POPS     O13A     OCL     -0.670000       15.9994           0
     15095 MEMB     114      POPS     O13B     OCL     -0.670000       15.9994           0
     15096 MEMB     114      POPS     C11      CTL2    -0.800000E-01   12.0110           0
     15097 MEMB     114      POPS     H11A     HAL2     0.900000E-01   1.00800           0
     15098 MEMB     114      POPS     H11B     HAL2     0.900000E-01   1.00800           0
     15099 MEMB     114      POPS     P        PL       1.500000       30.9740           0
     15100 MEMB     114      POPS     O13      O2L     -0.780000       15.9994           0
     15101 MEMB     114      POPS     O14      O2L     -0.780000       15.9994           0
     15102 MEMB     114      POPS     O12      OSLP    -0.570000       15.9994           0
     15103 MEMB     114      POPS     O11      OSLP    -0.570000       15.9994           0
     15104 MEMB     114      POPS     C1       CTL2    -0.800000E-01   12.0110           0
     15105 MEMB     114      POPS     HA       HAL2     0.900000E-01   1.00800           0
     15106 MEMB     114      POPS     HB       HAL2     0.900000E-01   1.00800           0
     15107 MEMB     114      POPS     C2       CTL1     0.170000       12.0110           0
     15108 MEMB     114      POPS     HS       HAL1     0.900000E-01   1.00800           0
     15109 MEMB     114      POPS     O21      OSL     -0.490000       15.9994           0
     15110 MEMB     114      POPS     C21      CL       0.900000       12.0110           0
     15111 MEMB     114      POPS     O22      OBL     -0.630000       15.9994           0
     15112 MEMB     114      POPS     C22      CTL2    -0.220000       12.0110           0
     15113 MEMB     114      POPS     H2R      HAL2     0.900000E-01   1.00800           0
     15114 MEMB     114      POPS     H2S      HAL2     0.900000E-01   1.00800           0
     15115 MEMB     114      POPS     C3       CTL2     0.800000E-01   12.0110           0
     15116 MEMB     114      POPS     HX       HAL2     0.900000E-01   1.00800           0
     15117 MEMB     114      POPS     HY       HAL2     0.900000E-01   1.00800           0
     15118 MEMB     114      POPS     O31      OSL     -0.490000       15.9994           0
     15119 MEMB     114      POPS     C31      CL       0.900000       12.0110           0
     15120 MEMB     114      POPS     O32      OBL     -0.630000       15.9994           0
     15121 MEMB     114      POPS     C32      CTL2    -0.220000       12.0110           0
     15122 MEMB     114      POPS     H2X      HAL2     0.900000E-01   1.00800           0
     15123 MEMB     114      POPS     H2Y      HAL2     0.900000E-01   1.00800           0
     15124 MEMB     114      POPS     C23      CTL2    -0.180000       12.0110           0
     15125 MEMB     114      POPS     H3R      HAL2     0.900000E-01   1.00800           0
     15126 MEMB     114      POPS     H3S      HAL2     0.900000E-01   1.00800           0
     15127 MEMB     114      POPS     C24      CTL2    -0.180000       12.0110           0
     15128 MEMB     114      POPS     H4R      HAL2     0.900000E-01   1.00800           0
     15129 MEMB     114      POPS     H4S      HAL2     0.900000E-01   1.00800           0
     15130 MEMB     114      POPS     C25      CTL2    -0.180000       12.0110           0
     15131 MEMB     114      POPS     H5R      HAL2     0.900000E-01   1.00800           0
     15132 MEMB     114      POPS     H5S      HAL2     0.900000E-01   1.00800           0
     15133 MEMB     114      POPS     C26      CTL2    -0.180000       12.0110           0
     15134 MEMB     114      POPS     H6R      HAL2     0.900000E-01   1.00800           0
     15135 MEMB     114      POPS     H6S      HAL2     0.900000E-01   1.00800           0
     15136 MEMB     114      POPS     C27      CTL2    -0.180000       12.0110           0
     15137 MEMB     114      POPS     H7R      HAL2     0.900000E-01   1.00800           0
     15138 MEMB     114      POPS     H7S      HAL2     0.900000E-01   1.00800           0
     15139 MEMB     114      POPS     C28      CTL2    -0.180000       12.0110           0
     15140 MEMB     114      POPS     H8R      HAL2     0.900000E-01   1.00800           0
     15141 MEMB     114      POPS     H8S      HAL2     0.900000E-01   1.00800           0
     15142 MEMB     114      POPS     C29      CEL1    -0.150000       12.0110           0
     15143 MEMB     114      POPS     H91      HEL1     0.150000       1.00800           0
     15144 MEMB     114      POPS     C210     CEL1    -0.150000       12.0110           0
     15145 MEMB     114      POPS     H101     HEL1     0.150000       1.00800           0
     15146 MEMB     114      POPS     C211     CTL2    -0.180000       12.0110           0
     15147 MEMB     114      POPS     H11R     HAL2     0.900000E-01   1.00800           0
     15148 MEMB     114      POPS     H11S     HAL2     0.900000E-01   1.00800           0
     15149 MEMB     114      POPS     C212     CTL2    -0.180000       12.0110           0
     15150 MEMB     114      POPS     H12R     HAL2     0.900000E-01   1.00800           0
     15151 MEMB     114      POPS     H12S     HAL2     0.900000E-01   1.00800           0
     15152 MEMB     114      POPS     C213     CTL2    -0.180000       12.0110           0
     15153 MEMB     114      POPS     H13R     HAL2     0.900000E-01   1.00800           0
     15154 MEMB     114      POPS     H13S     HAL2     0.900000E-01   1.00800           0
     15155 MEMB     114      POPS     C214     CTL2    -0.180000       12.0110           0
     15156 MEMB     114      POPS     H14R     HAL2     0.900000E-01   1.00800           0
     15157 MEMB     114      POPS     H14S     HAL2     0.900000E-01   1.00800           0
     15158 MEMB     114      POPS     C215     CTL2    -0.180000       12.0110           0
     15159 MEMB     114      POPS     H15R     HAL2     0.900000E-01   1.00800           0
     15160 MEMB     114      POPS     H15S     HAL2     0.900000E-01   1.00800           0
     15161 MEMB     114      POPS     C216     CTL2    -0.180000       12.0110           0
     15162 MEMB     114      POPS     H16R     HAL2     0.900000E-01   1.00800           0
     15163 MEMB     114      POPS     H16S     HAL2     0.900000E-01   1.00800           0
     15164 MEMB     114      POPS     C217     CTL2    -0.180000       12.0110           0
     15165 MEMB     114      POPS     H17R     HAL2     0.900000E-01   1.00800           0
     15166 MEMB     114      POPS     H17S     HAL2     0.900000E-01   1.00800           0
     15167 MEMB     114      POPS     C218     CTL3    -0.270000       12.0110           0
     15168 MEMB     114      POPS     H18R     HAL3     0.900000E-01   1.00800           0
     15169 MEMB     114      POPS     H18S     HAL3     0.900000E-01   1.00800           0
     15170 MEMB     114      POPS     H18T     HAL3     0.900000E-01   1.00800           0
     15171 MEMB     114      POPS     C33      CTL2    -0.180000       12.0110           0
     15172 MEMB     114      POPS     H3X      HAL2     0.900000E-01   1.00800           0
     15173 MEMB     114      POPS     H3Y      HAL2     0.900000E-01   1.00800           0
     15174 MEMB     114      POPS     C34      CTL2    -0.180000       12.0110           0
     15175 MEMB     114      POPS     H4X      HAL2     0.900000E-01   1.00800           0
     15176 MEMB     114      POPS     H4Y      HAL2     0.900000E-01   1.00800           0
     15177 MEMB     114      POPS     C35      CTL2    -0.180000       12.0110           0
     15178 MEMB     114      POPS     H5X      HAL2     0.900000E-01   1.00800           0
     15179 MEMB     114      POPS     H5Y      HAL2     0.900000E-01   1.00800           0
     15180 MEMB     114      POPS     C36      CTL2    -0.180000       12.0110           0
     15181 MEMB     114      POPS     H6X      HAL2     0.900000E-01   1.00800           0
     15182 MEMB     114      POPS     H6Y      HAL2     0.900000E-01   1.00800           0
     15183 MEMB     114      POPS     C37      CTL2    -0.180000       12.0110           0
     15184 MEMB     114      POPS     H7X      HAL2     0.900000E-01   1.00800           0
     15185 MEMB     114      POPS     H7Y      HAL2     0.900000E-01   1.00800           0
     15186 MEMB     114      POPS     C38      CTL2    -0.180000       12.0110           0
     15187 MEMB     114      POPS     H8X      HAL2     0.900000E-01   1.00800           0
     15188 MEMB     114      POPS     H8Y      HAL2     0.900000E-01   1.00800           0
     15189 MEMB     114      POPS     C39      CTL2    -0.180000       12.0110           0
     15190 MEMB     114      POPS     H9X      HAL2     0.900000E-01   1.00800           0
     15191 MEMB     114      POPS     H9Y      HAL2     0.900000E-01   1.00800           0
     15192 MEMB     114      POPS     C310     CTL2    -0.180000       12.0110           0
     15193 MEMB     114      POPS     H10X     HAL2     0.900000E-01   1.00800           0
     15194 MEMB     114      POPS     H10Y     HAL2     0.900000E-01   1.00800           0
     15195 MEMB     114      POPS     C311     CTL2    -0.180000       12.0110           0
     15196 MEMB     114      POPS     H11X     HAL2     0.900000E-01   1.00800           0
     15197 MEMB     114      POPS     H11Y     HAL2     0.900000E-01   1.00800           0
     15198 MEMB     114      POPS     C312     CTL2    -0.180000       12.0110           0
     15199 MEMB     114      POPS     H12X     HAL2     0.900000E-01   1.00800           0
     15200 MEMB     114      POPS     H12Y     HAL2     0.900000E-01   1.00800           0
     15201 MEMB     114      POPS     C313     CTL2    -0.180000       12.0110           0
     15202 MEMB     114      POPS     H13X     HAL2     0.900000E-01   1.00800           0
     15203 MEMB     114      POPS     H13Y     HAL2     0.900000E-01   1.00800           0
     15204 MEMB     114      POPS     C314     CTL2    -0.180000       12.0110           0
     15205 MEMB     114      POPS     H14X     HAL2     0.900000E-01   1.00800           0
     15206 MEMB     114      POPS     H14Y     HAL2     0.900000E-01   1.00800           0
     15207 MEMB     114      POPS     C315     CTL2    -0.180000       12.0110           0
     15208 MEMB     114      POPS     H15X     HAL2     0.900000E-01   1.00800           0
     15209 MEMB     114      POPS     H15Y     HAL2     0.900000E-01   1.00800           0
     15210 MEMB     114      POPS     C316     CTL3    -0.270000       12.0110           0
     15211 MEMB     114      POPS     H16X     HAL3     0.900000E-01   1.00800           0
     15212 MEMB     114      POPS     H16Y     HAL3     0.900000E-01   1.00800           0
     15213 MEMB     114      POPS     H16Z     HAL3     0.900000E-01   1.00800           0
     15214 MEMB     115      POPC     N        NTL     -0.600000       14.0070           0
     15215 MEMB     115      POPC     C12      CTL2    -0.100000       12.0110           0
     15216 MEMB     115      POPC     H12A     HL       0.250000       1.00800           0
     15217 MEMB     115      POPC     H12B     HL       0.250000       1.00800           0
     15218 MEMB     115      POPC     C13      CTL5    -0.350000       12.0110           0
     15219 MEMB     115      POPC     H13A     HL       0.250000       1.00800           0
     15220 MEMB     115      POPC     H13B     HL       0.250000       1.00800           0
     15221 MEMB     115      POPC     H13C     HL       0.250000       1.00800           0
     15222 MEMB     115      POPC     C14      CTL5    -0.350000       12.0110           0
     15223 MEMB     115      POPC     H14A     HL       0.250000       1.00800           0
     15224 MEMB     115      POPC     H14B     HL       0.250000       1.00800           0
     15225 MEMB     115      POPC     H14C     HL       0.250000       1.00800           0
     15226 MEMB     115      POPC     C15      CTL5    -0.350000       12.0110           0
     15227 MEMB     115      POPC     H15A     HL       0.250000       1.00800           0
     15228 MEMB     115      POPC     H15B     HL       0.250000       1.00800           0
     15229 MEMB     115      POPC     H15C     HL       0.250000       1.00800           0
     15230 MEMB     115      POPC     C11      CTL2    -0.800000E-01   12.0110           0
     15231 MEMB     115      POPC     H11A     HAL2     0.900000E-01   1.00800           0
     15232 MEMB     115      POPC     H11B     HAL2     0.900000E-01   1.00800           0
     15233 MEMB     115      POPC     P        PL       1.500000       30.9740           0
     15234 MEMB     115      POPC     O13      O2L     -0.780000       15.9994           0
     15235 MEMB     115      POPC     O14      O2L     -0.780000       15.9994           0
     15236 MEMB     115      POPC     O12      OSLP    -0.570000       15.9994           0
     15237 MEMB     115      POPC     O11      OSLP    -0.570000       15.9994           0
     15238 MEMB     115      POPC     C1       CTL2    -0.800000E-01   12.0110           0
     15239 MEMB     115      POPC     HA       HAL2     0.900000E-01   1.00800           0
     15240 MEMB     115      POPC     HB       HAL2     0.900000E-01   1.00800           0
     15241 MEMB     115      POPC     C2       CTL1     0.170000       12.0110           0
     15242 MEMB     115      POPC     HS       HAL1     0.900000E-01   1.00800           0
     15243 MEMB     115      POPC     O21      OSL     -0.490000       15.9994           0
     15244 MEMB     115      POPC     C21      CL       0.900000       12.0110           0
     15245 MEMB     115      POPC     O22      OBL     -0.630000       15.9994           0
     15246 MEMB     115      POPC     C22      CTL2    -0.220000       12.0110           0
     15247 MEMB     115      POPC     H2R      HAL2     0.900000E-01   1.00800           0
     15248 MEMB     115      POPC     H2S      HAL2     0.900000E-01   1.00800           0
     15249 MEMB     115      POPC     C3       CTL2     0.800000E-01   12.0110           0
     15250 MEMB     115      POPC     HX       HAL2     0.900000E-01   1.00800           0
     15251 MEMB     115      POPC     HY       HAL2     0.900000E-01   1.00800           0
     15252 MEMB     115      POPC     O31      OSL     -0.490000       15.9994           0
     15253 MEMB     115      POPC     C31      CL       0.900000       12.0110           0
     15254 MEMB     115      POPC     O32      OBL     -0.630000       15.9994           0
     15255 MEMB     115      POPC     C32      CTL2    -0.220000       12.0110           0
     15256 MEMB     115      POPC     H2X      HAL2     0.900000E-01   1.00800           0
     15257 MEMB     115      POPC     H2Y      HAL2     0.900000E-01   1.00800           0
     15258 MEMB     115      POPC     C23      CTL2    -0.180000       12.0110           0
     15259 MEMB     115      POPC     H3R      HAL2     0.900000E-01   1.00800           0
     15260 MEMB     115      POPC     H3S      HAL2     0.900000E-01   1.00800           0
     15261 MEMB     115      POPC     C24      CTL2    -0.180000       12.0110           0
     15262 MEMB     115      POPC     H4R      HAL2     0.900000E-01   1.00800           0
     15263 MEMB     115      POPC     H4S      HAL2     0.900000E-01   1.00800           0
     15264 MEMB     115      POPC     C25      CTL2    -0.180000       12.0110           0
     15265 MEMB     115      POPC     H5R      HAL2     0.900000E-01   1.00800           0
     15266 MEMB     115      POPC     H5S      HAL2     0.900000E-01   1.00800           0
     15267 MEMB     115      POPC     C26      CTL2    -0.180000       12.0110           0
     15268 MEMB     115      POPC     H6R      HAL2     0.900000E-01   1.00800           0
     15269 MEMB     115      POPC     H6S      HAL2     0.900000E-01   1.00800           0
     15270 MEMB     115      POPC     C27      CTL2    -0.180000       12.0110           0
     15271 MEMB     115      POPC     H7R      HAL2     0.900000E-01   1.00800           0
     15272 MEMB     115      POPC     H7S      HAL2     0.900000E-01   1.00800           0
     15273 MEMB     115      POPC     C28      CTL2    -0.180000       12.0110           0
     15274 MEMB     115      POPC     H8R      HAL2     0.900000E-01   1.00800           0
     15275 MEMB     115      POPC     H8S      HAL2     0.900000E-01   1.00800           0
     15276 MEMB     115      POPC     C29      CEL1    -0.150000       12.0110           0
     15277 MEMB     115      POPC     H91      HEL1     0.150000       1.00800           0
     15278 MEMB     115      POPC     C210     CEL1    -0.150000       12.0110           0
     15279 MEMB     115      POPC     H101     HEL1     0.150000       1.00800           0
     15280 MEMB     115      POPC     C211     CTL2    -0.180000       12.0110           0
     15281 MEMB     115      POPC     H11R     HAL2     0.900000E-01   1.00800           0
     15282 MEMB     115      POPC     H11S     HAL2     0.900000E-01   1.00800           0
     15283 MEMB     115      POPC     C212     CTL2    -0.180000       12.0110           0
     15284 MEMB     115      POPC     H12R     HAL2     0.900000E-01   1.00800           0
     15285 MEMB     115      POPC     H12S     HAL2     0.900000E-01   1.00800           0
     15286 MEMB     115      POPC     C213     CTL2    -0.180000       12.0110           0
     15287 MEMB     115      POPC     H13R     HAL2     0.900000E-01   1.00800           0
     15288 MEMB     115      POPC     H13S     HAL2     0.900000E-01   1.00800           0
     15289 MEMB     115      POPC     C214     CTL2    -0.180000       12.0110           0
     15290 MEMB     115      POPC     H14R     HAL2     0.900000E-01   1.00800           0
     15291 MEMB     115      POPC     H14S     HAL2     0.900000E-01   1.00800           0
     15292 MEMB     115      POPC     C215     CTL2    -0.180000       12.0110           0
     15293 MEMB     115      POPC     H15R     HAL2     0.900000E-01   1.00800           0
     15294 MEMB     115      POPC     H15S     HAL2     0.900000E-01   1.00800           0
     15295 MEMB     115      POPC     C216     CTL2    -0.180000       12.0110           0
     15296 MEMB     115      POPC     H16R     HAL2     0.900000E-01   1.00800           0
     15297 MEMB     115      POPC     H16S     HAL2     0.900000E-01   1.00800           0
     15298 MEMB     115      POPC     C217     CTL2    -0.180000       12.0110           0
     15299 MEMB     115      POPC     H17R     HAL2     0.900000E-01   1.00800           0
     15300 MEMB     115      POPC     H17S     HAL2     0.900000E-01   1.00800           0
     15301 MEMB     115      POPC     C218     CTL3    -0.270000       12.0110           0
     15302 MEMB     115      POPC     H18R     HAL3     0.900000E-01   1.00800           0
     15303 MEMB     115      POPC     H18S     HAL3     0.900000E-01   1.00800           0
     15304 MEMB     115      POPC     H18T     HAL3     0.900000E-01   1.00800           0
     15305 MEMB     115      POPC     C33      CTL2    -0.180000       12.0110           0
     15306 MEMB     115      POPC     H3X      HAL2     0.900000E-01   1.00800           0
     15307 MEMB     115      POPC     H3Y      HAL2     0.900000E-01   1.00800           0
     15308 MEMB     115      POPC     C34      CTL2    -0.180000       12.0110           0
     15309 MEMB     115      POPC     H4X      HAL2     0.900000E-01   1.00800           0
     15310 MEMB     115      POPC     H4Y      HAL2     0.900000E-01   1.00800           0
     15311 MEMB     115      POPC     C35      CTL2    -0.180000       12.0110           0
     15312 MEMB     115      POPC     H5X      HAL2     0.900000E-01   1.00800           0
     15313 MEMB     115      POPC     H5Y      HAL2     0.900000E-01   1.00800           0
     15314 MEMB     115      POPC     C36      CTL2    -0.180000       12.0110           0
     15315 MEMB     115      POPC     H6X      HAL2     0.900000E-01   1.00800           0
     15316 MEMB     115      POPC     H6Y      HAL2     0.900000E-01   1.00800           0
     15317 MEMB     115      POPC     C37      CTL2    -0.180000       12.0110           0
     15318 MEMB     115      POPC     H7X      HAL2     0.900000E-01   1.00800           0
     15319 MEMB     115      POPC     H7Y      HAL2     0.900000E-01   1.00800           0
     15320 MEMB     115      POPC     C38      CTL2    -0.180000       12.0110           0
     15321 MEMB     115      POPC     H8X      HAL2     0.900000E-01   1.00800           0
     15322 MEMB     115      POPC     H8Y      HAL2     0.900000E-01   1.00800           0
     15323 MEMB     115      POPC     C39      CTL2    -0.180000       12.0110           0
     15324 MEMB     115      POPC     H9X      HAL2     0.900000E-01   1.00800           0
     15325 MEMB     115      POPC     H9Y      HAL2     0.900000E-01   1.00800           0
     15326 MEMB     115      POPC     C310     CTL2    -0.180000       12.0110           0
     15327 MEMB     115      POPC     H10X     HAL2     0.900000E-01   1.00800           0
     15328 MEMB     115      POPC     H10Y     HAL2     0.900000E-01   1.00800           0
     15329 MEMB     115      POPC     C311     CTL2    -0.180000       12.0110           0
     15330 MEMB     115      POPC     H11X     HAL2     0.900000E-01   1.00800           0
     15331 MEMB     115      POPC     H11Y     HAL2     0.900000E-01   1.00800           0
     15332 MEMB     115      POPC     C312     CTL2    -0.180000       12.0110           0
     15333 MEMB     115      POPC     H12X     HAL2     0.900000E-01   1.00800           0
     15334 MEMB     115      POPC     H12Y     HAL2     0.900000E-01   1.00800           0
     15335 MEMB     115      POPC     C313     CTL2    -0.180000       12.0110           0
     15336 MEMB     115      POPC     H13X     HAL2     0.900000E-01   1.00800           0
     15337 MEMB     115      POPC     H13Y     HAL2     0.900000E-01   1.00800           0
     15338 MEMB     115      POPC     C314     CTL2    -0.180000       12.0110           0
     15339 MEMB     115      POPC     H14X     HAL2     0.900000E-01   1.00800           0
     15340 MEMB     115      POPC     H14Y     HAL2     0.900000E-01   1.00800           0
     15341 MEMB     115      POPC     C315     CTL2    -0.180000       12.0110           0
     15342 MEMB     115      POPC     H15X     HAL2     0.900000E-01   1.00800           0
     15343 MEMB     115      POPC     H15Y     HAL2     0.900000E-01   1.00800           0
     15344 MEMB     115      POPC     C316     CTL3    -0.270000       12.0110           0
     15345 MEMB     115      POPC     H16X     HAL3     0.900000E-01   1.00800           0
     15346 MEMB     115      POPC     H16Y     HAL3     0.900000E-01   1.00800           0
     15347 MEMB     115      POPC     H16Z     HAL3     0.900000E-01   1.00800           0
     15348 MEMB     116      POPC     N        NTL     -0.600000       14.0070           0
     15349 MEMB     116      POPC     C12      CTL2    -0.100000       12.0110           0
     15350 MEMB     116      POPC     H12A     HL       0.250000       1.00800           0
     15351 MEMB     116      POPC     H12B     HL       0.250000       1.00800           0
     15352 MEMB     116      POPC     C13      CTL5    -0.350000       12.0110           0
     15353 MEMB     116      POPC     H13A     HL       0.250000       1.00800           0
     15354 MEMB     116      POPC     H13B     HL       0.250000       1.00800           0
     15355 MEMB     116      POPC     H13C     HL       0.250000       1.00800           0
     15356 MEMB     116      POPC     C14      CTL5    -0.350000       12.0110           0
     15357 MEMB     116      POPC     H14A     HL       0.250000       1.00800           0
     15358 MEMB     116      POPC     H14B     HL       0.250000       1.00800           0
     15359 MEMB     116      POPC     H14C     HL       0.250000       1.00800           0
     15360 MEMB     116      POPC     C15      CTL5    -0.350000       12.0110           0
     15361 MEMB     116      POPC     H15A     HL       0.250000       1.00800           0
     15362 MEMB     116      POPC     H15B     HL       0.250000       1.00800           0
     15363 MEMB     116      POPC     H15C     HL       0.250000       1.00800           0
     15364 MEMB     116      POPC     C11      CTL2    -0.800000E-01   12.0110           0
     15365 MEMB     116      POPC     H11A     HAL2     0.900000E-01   1.00800           0
     15366 MEMB     116      POPC     H11B     HAL2     0.900000E-01   1.00800           0
     15367 MEMB     116      POPC     P        PL       1.500000       30.9740           0
     15368 MEMB     116      POPC     O13      O2L     -0.780000       15.9994           0
     15369 MEMB     116      POPC     O14      O2L     -0.780000       15.9994           0
     15370 MEMB     116      POPC     O12      OSLP    -0.570000       15.9994           0
     15371 MEMB     116      POPC     O11      OSLP    -0.570000       15.9994           0
     15372 MEMB     116      POPC     C1       CTL2    -0.800000E-01   12.0110           0
     15373 MEMB     116      POPC     HA       HAL2     0.900000E-01   1.00800           0
     15374 MEMB     116      POPC     HB       HAL2     0.900000E-01   1.00800           0
     15375 MEMB     116      POPC     C2       CTL1     0.170000       12.0110           0
     15376 MEMB     116      POPC     HS       HAL1     0.900000E-01   1.00800           0
     15377 MEMB     116      POPC     O21      OSL     -0.490000       15.9994           0
     15378 MEMB     116      POPC     C21      CL       0.900000       12.0110           0
     15379 MEMB     116      POPC     O22      OBL     -0.630000       15.9994           0
     15380 MEMB     116      POPC     C22      CTL2    -0.220000       12.0110           0
     15381 MEMB     116      POPC     H2R      HAL2     0.900000E-01   1.00800           0
     15382 MEMB     116      POPC     H2S      HAL2     0.900000E-01   1.00800           0
     15383 MEMB     116      POPC     C3       CTL2     0.800000E-01   12.0110           0
     15384 MEMB     116      POPC     HX       HAL2     0.900000E-01   1.00800           0
     15385 MEMB     116      POPC     HY       HAL2     0.900000E-01   1.00800           0
     15386 MEMB     116      POPC     O31      OSL     -0.490000       15.9994           0
     15387 MEMB     116      POPC     C31      CL       0.900000       12.0110           0
     15388 MEMB     116      POPC     O32      OBL     -0.630000       15.9994           0
     15389 MEMB     116      POPC     C32      CTL2    -0.220000       12.0110           0
     15390 MEMB     116      POPC     H2X      HAL2     0.900000E-01   1.00800           0
     15391 MEMB     116      POPC     H2Y      HAL2     0.900000E-01   1.00800           0
     15392 MEMB     116      POPC     C23      CTL2    -0.180000       12.0110           0
     15393 MEMB     116      POPC     H3R      HAL2     0.900000E-01   1.00800           0
     15394 MEMB     116      POPC     H3S      HAL2     0.900000E-01   1.00800           0
     15395 MEMB     116      POPC     C24      CTL2    -0.180000       12.0110           0
     15396 MEMB     116      POPC     H4R      HAL2     0.900000E-01   1.00800           0
     15397 MEMB     116      POPC     H4S      HAL2     0.900000E-01   1.00800           0
     15398 MEMB     116      POPC     C25      CTL2    -0.180000       12.0110           0
     15399 MEMB     116      POPC     H5R      HAL2     0.900000E-01   1.00800           0
     15400 MEMB     116      POPC     H5S      HAL2     0.900000E-01   1.00800           0
     15401 MEMB     116      POPC     C26      CTL2    -0.180000       12.0110           0
     15402 MEMB     116      POPC     H6R      HAL2     0.900000E-01   1.00800           0
     15403 MEMB     116      POPC     H6S      HAL2     0.900000E-01   1.00800           0
     15404 MEMB     116      POPC     C27      CTL2    -0.180000       12.0110           0
     15405 MEMB     116      POPC     H7R      HAL2     0.900000E-01   1.00800           0
     15406 MEMB     116      POPC     H7S      HAL2     0.900000E-01   1.00800           0
     15407 MEMB     116      POPC     C28      CTL2    -0.180000       12.0110           0
     15408 MEMB     116      POPC     H8R      HAL2     0.900000E-01   1.00800           0
     15409 MEMB     116      POPC     H8S      HAL2     0.900000E-01   1.00800           0
     15410 MEMB     116      POPC     C29      CEL1    -0.150000       12.0110           0
     15411 MEMB     116      POPC     H91      HEL1     0.150000       1.00800           0
     15412 MEMB     116      POPC     C210     CEL1    -0.150000       12.0110           0
     15413 MEMB     116      POPC     H101     HEL1     0.150000       1.00800           0
     15414 MEMB     116      POPC     C211     CTL2    -0.180000       12.0110           0
     15415 MEMB     116      POPC     H11R     HAL2     0.900000E-01   1.00800           0
     15416 MEMB     116      POPC     H11S     HAL2     0.900000E-01   1.00800           0
     15417 MEMB     116      POPC     C212     CTL2    -0.180000       12.0110           0
     15418 MEMB     116      POPC     H12R     HAL2     0.900000E-01   1.00800           0
     15419 MEMB     116      POPC     H12S     HAL2     0.900000E-01   1.00800           0
     15420 MEMB     116      POPC     C213     CTL2    -0.180000       12.0110           0
     15421 MEMB     116      POPC     H13R     HAL2     0.900000E-01   1.00800           0
     15422 MEMB     116      POPC     H13S     HAL2     0.900000E-01   1.00800           0
     15423 MEMB     116      POPC     C214     CTL2    -0.180000       12.0110           0
     15424 MEMB     116      POPC     H14R     HAL2     0.900000E-01   1.00800           0
     15425 MEMB     116      POPC     H14S     HAL2     0.900000E-01   1.00800           0
     15426 MEMB     116      POPC     C215     CTL2    -0.180000       12.0110           0
     15427 MEMB     116      POPC     H15R     HAL2     0.900000E-01   1.00800           0
     15428 MEMB     116      POPC     H15S     HAL2     0.900000E-01   1.00800           0
     15429 MEMB     116      POPC     C216     CTL2    -0.180000       12.0110           0
     15430 MEMB     116      POPC     H16R     HAL2     0.900000E-01   1.00800           0
     15431 MEMB     116      POPC     H16S     HAL2     0.900000E-01   1.00800           0
     15432 MEMB     116      POPC     C217     CTL2    -0.180000       12.0110           0
     15433 MEMB     116      POPC     H17R     HAL2     0.900000E-01   1.00800           0
     15434 MEMB     116      POPC     H17S     HAL2     0.900000E-01   1.00800           0
     15435 MEMB     116      POPC     C218     CTL3    -0.270000       12.0110           0
     15436 MEMB     116      POPC     H18R     HAL3     0.900000E-01   1.00800           0
     15437 MEMB     116      POPC     H18S     HAL3     0.900000E-01   1.00800           0
     15438 MEMB     116      POPC     H18T     HAL3     0.900000E-01   1.00800           0
     15439 MEMB     116      POPC     C33      CTL2    -0.180000       12.0110           0
     15440 MEMB     116      POPC     H3X      HAL2     0.900000E-01   1.00800           0
     15441 MEMB     116      POPC     H3Y      HAL2     0.900000E-01   1.00800           0
     15442 MEMB     116      POPC     C34      CTL2    -0.180000       12.0110           0
     15443 MEMB     116      POPC     H4X      HAL2     0.900000E-01   1.00800           0
     15444 MEMB     116      POPC     H4Y      HAL2     0.900000E-01   1.00800           0
     15445 MEMB     116      POPC     C35      CTL2    -0.180000       12.0110           0
     15446 MEMB     116      POPC     H5X      HAL2     0.900000E-01   1.00800           0
     15447 MEMB     116      POPC     H5Y      HAL2     0.900000E-01   1.00800           0
     15448 MEMB     116      POPC     C36      CTL2    -0.180000       12.0110           0
     15449 MEMB     116      POPC     H6X      HAL2     0.900000E-01   1.00800           0
     15450 MEMB     116      POPC     H6Y      HAL2     0.900000E-01   1.00800           0
     15451 MEMB     116      POPC     C37      CTL2    -0.180000       12.0110           0
     15452 MEMB     116      POPC     H7X      HAL2     0.900000E-01   1.00800           0
     15453 MEMB     116      POPC     H7Y      HAL2     0.900000E-01   1.00800           0
     15454 MEMB     116      POPC     C38      CTL2    -0.180000       12.0110           0
     15455 MEMB     116      POPC     H8X      HAL2     0.900000E-01   1.00800           0
     15456 MEMB     116      POPC     H8Y      HAL2     0.900000E-01   1.00800           0
     15457 MEMB     116      POPC     C39      CTL2    -0.180000       12.0110           0
     15458 MEMB     116      POPC     H9X      HAL2     0.900000E-01   1.00800           0
     15459 MEMB     116      POPC     H9Y      HAL2     0.900000E-01   1.00800           0
     15460 MEMB     116      POPC     C310     CTL2    -0.180000       12.0110           0
     15461 MEMB     116      POPC     H10X     HAL2     0.900000E-01   1.00800           0
     15462 MEMB     116      POPC     H10Y     HAL2     0.900000E-01   1.00800           0
     15463 MEMB     116      POPC     C311     CTL2    -0.180000       12.0110           0
     15464 MEMB     116      POPC     H11X     HAL2     0.900000E-01   1.00800           0
     15465 MEMB     116      POPC     H11Y     HAL2     0.900000E-01   1.00800           0
     15466 MEMB     116      POPC     C312     CTL2    -0.180000       12.0110           0
     15467 MEMB     116      POPC     H12X     HAL2     0.900000E-01   1.00800           0
     15468 MEMB     116      POPC     H12Y     HAL2     0.900000E-01   1.00800           0
     15469 MEMB     116      POPC     C313     CTL2    -0.180000       12.0110           0
     15470 MEMB     116      POPC     H13X     HAL2     0.900000E-01   1.00800           0
     15471 MEMB     116      POPC     H13Y     HAL2     0.900000E-01   1.00800           0
     15472 MEMB     116      POPC     C314     CTL2    -0.180000       12.0110           0
     15473 MEMB     116      POPC     H14X     HAL2     0.900000E-01   1.00800           0
     15474 MEMB     116      POPC     H14Y     HAL2     0.900000E-01   1.00800           0
     15475 MEMB     116      POPC     C315     CTL2    -0.180000       12.0110           0
     15476 MEMB     116      POPC     H15X     HAL2     0.900000E-01   1.00800           0
     15477 MEMB     116      POPC     H15Y     HAL2     0.900000E-01   1.00800           0
     15478 MEMB     116      POPC     C316     CTL3    -0.270000       12.0110           0
     15479 MEMB     116      POPC     H16X     HAL3     0.900000E-01   1.00800           0
     15480 MEMB     116      POPC     H16Y     HAL3     0.900000E-01   1.00800           0
     15481 MEMB     116      POPC     H16Z     HAL3     0.900000E-01   1.00800           0
     15482 MEMB     117      POPC     N        NTL     -0.600000       14.0070           0
     15483 MEMB     117      POPC     C12      CTL2    -0.100000       12.0110           0
     15484 MEMB     117      POPC     H12A     HL       0.250000       1.00800           0
     15485 MEMB     117      POPC     H12B     HL       0.250000       1.00800           0
     15486 MEMB     117      POPC     C13      CTL5    -0.350000       12.0110           0
     15487 MEMB     117      POPC     H13A     HL       0.250000       1.00800           0
     15488 MEMB     117      POPC     H13B     HL       0.250000       1.00800           0
     15489 MEMB     117      POPC     H13C     HL       0.250000       1.00800           0
     15490 MEMB     117      POPC     C14      CTL5    -0.350000       12.0110           0
     15491 MEMB     117      POPC     H14A     HL       0.250000       1.00800           0
     15492 MEMB     117      POPC     H14B     HL       0.250000       1.00800           0
     15493 MEMB     117      POPC     H14C     HL       0.250000       1.00800           0
     15494 MEMB     117      POPC     C15      CTL5    -0.350000       12.0110           0
     15495 MEMB     117      POPC     H15A     HL       0.250000       1.00800           0
     15496 MEMB     117      POPC     H15B     HL       0.250000       1.00800           0
     15497 MEMB     117      POPC     H15C     HL       0.250000       1.00800           0
     15498 MEMB     117      POPC     C11      CTL2    -0.800000E-01   12.0110           0
     15499 MEMB     117      POPC     H11A     HAL2     0.900000E-01   1.00800           0
     15500 MEMB     117      POPC     H11B     HAL2     0.900000E-01   1.00800           0
     15501 MEMB     117      POPC     P        PL       1.500000       30.9740           0
     15502 MEMB     117      POPC     O13      O2L     -0.780000       15.9994           0
     15503 MEMB     117      POPC     O14      O2L     -0.780000       15.9994           0
     15504 MEMB     117      POPC     O12      OSLP    -0.570000       15.9994           0
     15505 MEMB     117      POPC     O11      OSLP    -0.570000       15.9994           0
     15506 MEMB     117      POPC     C1       CTL2    -0.800000E-01   12.0110           0
     15507 MEMB     117      POPC     HA       HAL2     0.900000E-01   1.00800           0
     15508 MEMB     117      POPC     HB       HAL2     0.900000E-01   1.00800           0
     15509 MEMB     117      POPC     C2       CTL1     0.170000       12.0110           0
     15510 MEMB     117      POPC     HS       HAL1     0.900000E-01   1.00800           0
     15511 MEMB     117      POPC     O21      OSL     -0.490000       15.9994           0
     15512 MEMB     117      POPC     C21      CL       0.900000       12.0110           0
     15513 MEMB     117      POPC     O22      OBL     -0.630000       15.9994           0
     15514 MEMB     117      POPC     C22      CTL2    -0.220000       12.0110           0
     15515 MEMB     117      POPC     H2R      HAL2     0.900000E-01   1.00800           0
     15516 MEMB     117      POPC     H2S      HAL2     0.900000E-01   1.00800           0
     15517 MEMB     117      POPC     C3       CTL2     0.800000E-01   12.0110           0
     15518 MEMB     117      POPC     HX       HAL2     0.900000E-01   1.00800           0
     15519 MEMB     117      POPC     HY       HAL2     0.900000E-01   1.00800           0
     15520 MEMB     117      POPC     O31      OSL     -0.490000       15.9994           0
     15521 MEMB     117      POPC     C31      CL       0.900000       12.0110           0
     15522 MEMB     117      POPC     O32      OBL     -0.630000       15.9994           0
     15523 MEMB     117      POPC     C32      CTL2    -0.220000       12.0110           0
     15524 MEMB     117      POPC     H2X      HAL2     0.900000E-01   1.00800           0
     15525 MEMB     117      POPC     H2Y      HAL2     0.900000E-01   1.00800           0
     15526 MEMB     117      POPC     C23      CTL2    -0.180000       12.0110           0
     15527 MEMB     117      POPC     H3R      HAL2     0.900000E-01   1.00800           0
     15528 MEMB     117      POPC     H3S      HAL2     0.900000E-01   1.00800           0
     15529 MEMB     117      POPC     C24      CTL2    -0.180000       12.0110           0
     15530 MEMB     117      POPC     H4R      HAL2     0.900000E-01   1.00800           0
     15531 MEMB     117      POPC     H4S      HAL2     0.900000E-01   1.00800           0
     15532 MEMB     117      POPC     C25      CTL2    -0.180000       12.0110           0
     15533 MEMB     117      POPC     H5R      HAL2     0.900000E-01   1.00800           0
     15534 MEMB     117      POPC     H5S      HAL2     0.900000E-01   1.00800           0
     15535 MEMB     117      POPC     C26      CTL2    -0.180000       12.0110           0
     15536 MEMB     117      POPC     H6R      HAL2     0.900000E-01   1.00800           0
     15537 MEMB     117      POPC     H6S      HAL2     0.900000E-01   1.00800           0
     15538 MEMB     117      POPC     C27      CTL2    -0.180000       12.0110           0
     15539 MEMB     117      POPC     H7R      HAL2     0.900000E-01   1.00800           0
     15540 MEMB     117      POPC     H7S      HAL2     0.900000E-01   1.00800           0
     15541 MEMB     117      POPC     C28      CTL2    -0.180000       12.0110           0
     15542 MEMB     117      POPC     H8R      HAL2     0.900000E-01   1.00800           0
     15543 MEMB     117      POPC     H8S      HAL2     0.900000E-01   1.00800           0
     15544 MEMB     117      POPC     C29      CEL1    -0.150000       12.0110           0
     15545 MEMB     117      POPC     H91      HEL1     0.150000       1.00800           0
     15546 MEMB     117      POPC     C210     CEL1    -0.150000       12.0110           0
     15547 MEMB     117      POPC     H101     HEL1     0.150000       1.00800           0
     15548 MEMB     117      POPC     C211     CTL2    -0.180000       12.0110           0
     15549 MEMB     117      POPC     H11R     HAL2     0.900000E-01   1.00800           0
     15550 MEMB     117      POPC     H11S     HAL2     0.900000E-01   1.00800           0
     15551 MEMB     117      POPC     C212     CTL2    -0.180000       12.0110           0
     15552 MEMB     117      POPC     H12R     HAL2     0.900000E-01   1.00800           0
     15553 MEMB     117      POPC     H12S     HAL2     0.900000E-01   1.00800           0
     15554 MEMB     117      POPC     C213     CTL2    -0.180000       12.0110           0
     15555 MEMB     117      POPC     H13R     HAL2     0.900000E-01   1.00800           0
     15556 MEMB     117      POPC     H13S     HAL2     0.900000E-01   1.00800           0
     15557 MEMB     117      POPC     C214     CTL2    -0.180000       12.0110           0
     15558 MEMB     117      POPC     H14R     HAL2     0.900000E-01   1.00800           0
     15559 MEMB     117      POPC     H14S     HAL2     0.900000E-01   1.00800           0
     15560 MEMB     117      POPC     C215     CTL2    -0.180000       12.0110           0
     15561 MEMB     117      POPC     H15R     HAL2     0.900000E-01   1.00800           0
     15562 MEMB     117      POPC     H15S     HAL2     0.900000E-01   1.00800           0
     15563 MEMB     117      POPC     C216     CTL2    -0.180000       12.0110           0
     15564 MEMB     117      POPC     H16R     HAL2     0.900000E-01   1.00800           0
     15565 MEMB     117      POPC     H16S     HAL2     0.900000E-01   1.00800           0
     15566 MEMB     117      POPC     C217     CTL2    -0.180000       12.0110           0
     15567 MEMB     117      POPC     H17R     HAL2     0.900000E-01   1.00800           0
     15568 MEMB     117      POPC     H17S     HAL2     0.900000E-01   1.00800           0
     15569 MEMB     117      POPC     C218     CTL3    -0.270000       12.0110           0
     15570 MEMB     117      POPC     H18R     HAL3     0.900000E-01   1.00800           0
     15571 MEMB     117      POPC     H18S     HAL3     0.900000E-01   1.00800           0
     15572 MEMB     117      POPC     H18T     HAL3     0.900000E-01   1.00800           0
     15573 MEMB     117      POPC     C33      CTL2    -0.180000       12.0110           0
     15574 MEMB     117      POPC     H3X      HAL2     0.900000E-01   1.00800           0
     15575 MEMB     117      POPC     H3Y      HAL2     0.900000E-01   1.00800           0
     15576 MEMB     117      POPC     C34      CTL2    -0.180000       12.0110           0
     15577 MEMB     117      POPC     H4X      HAL2     0.900000E-01   1.00800           0
     15578 MEMB     117      POPC     H4Y      HAL2     0.900000E-01   1.00800           0
     15579 MEMB     117      POPC     C35      CTL2    -0.180000       12.0110           0
     15580 MEMB     117      POPC     H5X      HAL2     0.900000E-01   1.00800           0
     15581 MEMB     117      POPC     H5Y      HAL2     0.900000E-01   1.00800           0
     15582 MEMB     117      POPC     C36      CTL2    -0.180000       12.0110           0
     15583 MEMB     117      POPC     H6X      HAL2     0.900000E-01   1.00800           0
     15584 MEMB     117      POPC     H6Y      HAL2     0.900000E-01   1.00800           0
     15585 MEMB     117      POPC     C37      CTL2    -0.180000       12.0110           0
     15586 MEMB     117      POPC     H7X      HAL2     0.900000E-01   1.00800           0
     15587 MEMB     117      POPC     H7Y      HAL2     0.900000E-01   1.00800           0
     15588 MEMB     117      POPC     C38      CTL2    -0.180000       12.0110           0
     15589 MEMB     117      POPC     H8X      HAL2     0.900000E-01   1.00800           0
     15590 MEMB     117      POPC     H8Y      HAL2     0.900000E-01   1.00800           0
     15591 MEMB     117      POPC     C39      CTL2    -0.180000       12.0110           0
     15592 MEMB     117      POPC     H9X      HAL2     0.900000E-01   1.00800           0
     15593 MEMB     117      POPC     H9Y      HAL2     0.900000E-01   1.00800           0
     15594 MEMB     117      POPC     C310     CTL2    -0.180000       12.0110           0
     15595 MEMB     117      POPC     H10X     HAL2     0.900000E-01   1.00800           0
     15596 MEMB     117      POPC     H10Y     HAL2     0.900000E-01   1.00800           0
     15597 MEMB     117      POPC     C311     CTL2    -0.180000       12.0110           0
     15598 MEMB     117      POPC     H11X     HAL2     0.900000E-01   1.00800           0
     15599 MEMB     117      POPC     H11Y     HAL2     0.900000E-01   1.00800           0
     15600 MEMB     117      POPC     C312     CTL2    -0.180000       12.0110           0
     15601 MEMB     117      POPC     H12X     HAL2     0.900000E-01   1.00800           0
     15602 MEMB     117      POPC     H12Y     HAL2     0.900000E-01   1.00800           0
     15603 MEMB     117      POPC     C313     CTL2    -0.180000       12.0110           0
     15604 MEMB     117      POPC     H13X     HAL2     0.900000E-01   1.00800           0
     15605 MEMB     117      POPC     H13Y     HAL2     0.900000E-01   1.00800           0
     15606 MEMB     117      POPC     C314     CTL2    -0.180000       12.0110           0
     15607 MEMB     117      POPC     H14X     HAL2     0.900000E-01   1.00800           0
     15608 MEMB     117      POPC     H14Y     HAL2     0.900000E-01   1.00800           0
     15609 MEMB     117      POPC     C315     CTL2    -0.180000       12.0110           0
     15610 MEMB     117      POPC     H15X     HAL2     0.900000E-01   1.00800           0
     15611 MEMB     117      POPC     H15Y     HAL2     0.900000E-01   1.00800           0
     15612 MEMB     117      POPC     C316     CTL3    -0.270000       12.0110           0
     15613 MEMB     117      POPC     H16X     HAL3     0.900000E-01   1.00800           0
     15614 MEMB     117      POPC     H16Y     HAL3     0.900000E-01   1.00800           0
     15615 MEMB     117      POPC     H16Z     HAL3     0.900000E-01   1.00800           0
     15616 MEMB     118      POPS     N        NH3L    -0.300000       14.0070           0
     15617 MEMB     118      POPS     HN1      HCL      0.330000       1.00800           0
     15618 MEMB     118      POPS     HN2      HCL      0.330000       1.00800           0
     15619 MEMB     118      POPS     HN3      HCL      0.330000       1.00800           0
     15620 MEMB     118      POPS     C12      CTL1     0.210000       12.0110           0
     15621 MEMB     118      POPS     H12A     HBL      0.100000       1.00800           0
     15622 MEMB     118      POPS     C13      CCL      0.340000       12.0110           0
     15623 MEMB     118      POPS     O13A     OCL     -0.670000       15.9994           0
     15624 MEMB     118      POPS     O13B     OCL     -0.670000       15.9994           0
     15625 MEMB     118      POPS     C11      CTL2    -0.800000E-01   12.0110           0
     15626 MEMB     118      POPS     H11A     HAL2     0.900000E-01   1.00800           0
     15627 MEMB     118      POPS     H11B     HAL2     0.900000E-01   1.00800           0
     15628 MEMB     118      POPS     P        PL       1.500000       30.9740           0
     15629 MEMB     118      POPS     O13      O2L     -0.780000       15.9994           0
     15630 MEMB     118      POPS     O14      O2L     -0.780000       15.9994           0
     15631 MEMB     118      POPS     O12      OSLP    -0.570000       15.9994           0
     15632 MEMB     118      POPS     O11      OSLP    -0.570000       15.9994           0
     15633 MEMB     118      POPS     C1       CTL2    -0.800000E-01   12.0110           0
     15634 MEMB     118      POPS     HA       HAL2     0.900000E-01   1.00800           0
     15635 MEMB     118      POPS     HB       HAL2     0.900000E-01   1.00800           0
     15636 MEMB     118      POPS     C2       CTL1     0.170000       12.0110           0
     15637 MEMB     118      POPS     HS       HAL1     0.900000E-01   1.00800           0
     15638 MEMB     118      POPS     O21      OSL     -0.490000       15.9994           0
     15639 MEMB     118      POPS     C21      CL       0.900000       12.0110           0
     15640 MEMB     118      POPS     O22      OBL     -0.630000       15.9994           0
     15641 MEMB     118      POPS     C22      CTL2    -0.220000       12.0110           0
     15642 MEMB     118      POPS     H2R      HAL2     0.900000E-01   1.00800           0
     15643 MEMB     118      POPS     H2S      HAL2     0.900000E-01   1.00800           0
     15644 MEMB     118      POPS     C3       CTL2     0.800000E-01   12.0110           0
     15645 MEMB     118      POPS     HX       HAL2     0.900000E-01   1.00800           0
     15646 MEMB     118      POPS     HY       HAL2     0.900000E-01   1.00800           0
     15647 MEMB     118      POPS     O31      OSL     -0.490000       15.9994           0
     15648 MEMB     118      POPS     C31      CL       0.900000       12.0110           0
     15649 MEMB     118      POPS     O32      OBL     -0.630000       15.9994           0
     15650 MEMB     118      POPS     C32      CTL2    -0.220000       12.0110           0
     15651 MEMB     118      POPS     H2X      HAL2     0.900000E-01   1.00800           0
     15652 MEMB     118      POPS     H2Y      HAL2     0.900000E-01   1.00800           0
     15653 MEMB     118      POPS     C23      CTL2    -0.180000       12.0110           0
     15654 MEMB     118      POPS     H3R      HAL2     0.900000E-01   1.00800           0
     15655 MEMB     118      POPS     H3S      HAL2     0.900000E-01   1.00800           0
     15656 MEMB     118      POPS     C24      CTL2    -0.180000       12.0110           0
     15657 MEMB     118      POPS     H4R      HAL2     0.900000E-01   1.00800           0
     15658 MEMB     118      POPS     H4S      HAL2     0.900000E-01   1.00800           0
     15659 MEMB     118      POPS     C25      CTL2    -0.180000       12.0110           0
     15660 MEMB     118      POPS     H5R      HAL2     0.900000E-01   1.00800           0
     15661 MEMB     118      POPS     H5S      HAL2     0.900000E-01   1.00800           0
     15662 MEMB     118      POPS     C26      CTL2    -0.180000       12.0110           0
     15663 MEMB     118      POPS     H6R      HAL2     0.900000E-01   1.00800           0
     15664 MEMB     118      POPS     H6S      HAL2     0.900000E-01   1.00800           0
     15665 MEMB     118      POPS     C27      CTL2    -0.180000       12.0110           0
     15666 MEMB     118      POPS     H7R      HAL2     0.900000E-01   1.00800           0
     15667 MEMB     118      POPS     H7S      HAL2     0.900000E-01   1.00800           0
     15668 MEMB     118      POPS     C28      CTL2    -0.180000       12.0110           0
     15669 MEMB     118      POPS     H8R      HAL2     0.900000E-01   1.00800           0
     15670 MEMB     118      POPS     H8S      HAL2     0.900000E-01   1.00800           0
     15671 MEMB     118      POPS     C29      CEL1    -0.150000       12.0110           0
     15672 MEMB     118      POPS     H91      HEL1     0.150000       1.00800           0
     15673 MEMB     118      POPS     C210     CEL1    -0.150000       12.0110           0
     15674 MEMB     118      POPS     H101     HEL1     0.150000       1.00800           0
     15675 MEMB     118      POPS     C211     CTL2    -0.180000       12.0110           0
     15676 MEMB     118      POPS     H11R     HAL2     0.900000E-01   1.00800           0
     15677 MEMB     118      POPS     H11S     HAL2     0.900000E-01   1.00800           0
     15678 MEMB     118      POPS     C212     CTL2    -0.180000       12.0110           0
     15679 MEMB     118      POPS     H12R     HAL2     0.900000E-01   1.00800           0
     15680 MEMB     118      POPS     H12S     HAL2     0.900000E-01   1.00800           0
     15681 MEMB     118      POPS     C213     CTL2    -0.180000       12.0110           0
     15682 MEMB     118      POPS     H13R     HAL2     0.900000E-01   1.00800           0
     15683 MEMB     118      POPS     H13S     HAL2     0.900000E-01   1.00800           0
     15684 MEMB     118      POPS     C214     CTL2    -0.180000       12.0110           0
     15685 MEMB     118      POPS     H14R     HAL2     0.900000E-01   1.00800           0
     15686 MEMB     118      POPS     H14S     HAL2     0.900000E-01   1.00800           0
     15687 MEMB     118      POPS     C215     CTL2    -0.180000       12.0110           0
     15688 MEMB     118      POPS     H15R     HAL2     0.900000E-01   1.00800           0
     15689 MEMB     118      POPS     H15S     HAL2     0.900000E-01   1.00800           0
     15690 MEMB     118      POPS     C216     CTL2    -0.180000       12.0110           0
     15691 MEMB     118      POPS     H16R     HAL2     0.900000E-01   1.00800           0
     15692 MEMB     118      POPS     H16S     HAL2     0.900000E-01   1.00800           0
     15693 MEMB     118      POPS     C217     CTL2    -0.180000       12.0110           0
     15694 MEMB     118      POPS     H17R     HAL2     0.900000E-01   1.00800           0
     15695 MEMB     118      POPS     H17S     HAL2     0.900000E-01   1.00800           0
     15696 MEMB     118      POPS     C218     CTL3    -0.270000       12.0110           0
     15697 MEMB     118      POPS     H18R     HAL3     0.900000E-01   1.00800           0
     15698 MEMB     118      POPS     H18S     HAL3     0.900000E-01   1.00800           0
     15699 MEMB     118      POPS     H18T     HAL3     0.900000E-01   1.00800           0
     15700 MEMB     118      POPS     C33      CTL2    -0.180000       12.0110           0
     15701 MEMB     118      POPS     H3X      HAL2     0.900000E-01   1.00800           0
     15702 MEMB     118      POPS     H3Y      HAL2     0.900000E-01   1.00800           0
     15703 MEMB     118      POPS     C34      CTL2    -0.180000       12.0110           0
     15704 MEMB     118      POPS     H4X      HAL2     0.900000E-01   1.00800           0
     15705 MEMB     118      POPS     H4Y      HAL2     0.900000E-01   1.00800           0
     15706 MEMB     118      POPS     C35      CTL2    -0.180000       12.0110           0
     15707 MEMB     118      POPS     H5X      HAL2     0.900000E-01   1.00800           0
     15708 MEMB     118      POPS     H5Y      HAL2     0.900000E-01   1.00800           0
     15709 MEMB     118      POPS     C36      CTL2    -0.180000       12.0110           0
     15710 MEMB     118      POPS     H6X      HAL2     0.900000E-01   1.00800           0
     15711 MEMB     118      POPS     H6Y      HAL2     0.900000E-01   1.00800           0
     15712 MEMB     118      POPS     C37      CTL2    -0.180000       12.0110           0
     15713 MEMB     118      POPS     H7X      HAL2     0.900000E-01   1.00800           0
     15714 MEMB     118      POPS     H7Y      HAL2     0.900000E-01   1.00800           0
     15715 MEMB     118      POPS     C38      CTL2    -0.180000       12.0110           0
     15716 MEMB     118      POPS     H8X      HAL2     0.900000E-01   1.00800           0
     15717 MEMB     118      POPS     H8Y      HAL2     0.900000E-01   1.00800           0
     15718 MEMB     118      POPS     C39      CTL2    -0.180000       12.0110           0
     15719 MEMB     118      POPS     H9X      HAL2     0.900000E-01   1.00800           0
     15720 MEMB     118      POPS     H9Y      HAL2     0.900000E-01   1.00800           0
     15721 MEMB     118      POPS     C310     CTL2    -0.180000       12.0110           0
     15722 MEMB     118      POPS     H10X     HAL2     0.900000E-01   1.00800           0
     15723 MEMB     118      POPS     H10Y     HAL2     0.900000E-01   1.00800           0
     15724 MEMB     118      POPS     C311     CTL2    -0.180000       12.0110           0
     15725 MEMB     118      POPS     H11X     HAL2     0.900000E-01   1.00800           0
     15726 MEMB     118      POPS     H11Y     HAL2     0.900000E-01   1.00800           0
     15727 MEMB     118      POPS     C312     CTL2    -0.180000       12.0110           0
     15728 MEMB     118      POPS     H12X     HAL2     0.900000E-01   1.00800           0
     15729 MEMB     118      POPS     H12Y     HAL2     0.900000E-01   1.00800           0
     15730 MEMB     118      POPS     C313     CTL2    -0.180000       12.0110           0
     15731 MEMB     118      POPS     H13X     HAL2     0.900000E-01   1.00800           0
     15732 MEMB     118      POPS     H13Y     HAL2     0.900000E-01   1.00800           0
     15733 MEMB     118      POPS     C314     CTL2    -0.180000       12.0110           0
     15734 MEMB     118      POPS     H14X     HAL2     0.900000E-01   1.00800           0
     15735 MEMB     118      POPS     H14Y     HAL2     0.900000E-01   1.00800           0
     15736 MEMB     118      POPS     C315     CTL2    -0.180000       12.0110           0
     15737 MEMB     118      POPS     H15X     HAL2     0.900000E-01   1.00800           0
     15738 MEMB     118      POPS     H15Y     HAL2     0.900000E-01   1.00800           0
     15739 MEMB     118      POPS     C316     CTL3    -0.270000       12.0110           0
     15740 MEMB     118      POPS     H16X     HAL3     0.900000E-01   1.00800           0
     15741 MEMB     118      POPS     H16Y     HAL3     0.900000E-01   1.00800           0
     15742 MEMB     118      POPS     H16Z     HAL3     0.900000E-01   1.00800           0
     15743 MEMB     119      POPC     N        NTL     -0.600000       14.0070           0
     15744 MEMB     119      POPC     C12      CTL2    -0.100000       12.0110           0
     15745 MEMB     119      POPC     H12A     HL       0.250000       1.00800           0
     15746 MEMB     119      POPC     H12B     HL       0.250000       1.00800           0
     15747 MEMB     119      POPC     C13      CTL5    -0.350000       12.0110           0
     15748 MEMB     119      POPC     H13A     HL       0.250000       1.00800           0
     15749 MEMB     119      POPC     H13B     HL       0.250000       1.00800           0
     15750 MEMB     119      POPC     H13C     HL       0.250000       1.00800           0
     15751 MEMB     119      POPC     C14      CTL5    -0.350000       12.0110           0
     15752 MEMB     119      POPC     H14A     HL       0.250000       1.00800           0
     15753 MEMB     119      POPC     H14B     HL       0.250000       1.00800           0
     15754 MEMB     119      POPC     H14C     HL       0.250000       1.00800           0
     15755 MEMB     119      POPC     C15      CTL5    -0.350000       12.0110           0
     15756 MEMB     119      POPC     H15A     HL       0.250000       1.00800           0
     15757 MEMB     119      POPC     H15B     HL       0.250000       1.00800           0
     15758 MEMB     119      POPC     H15C     HL       0.250000       1.00800           0
     15759 MEMB     119      POPC     C11      CTL2    -0.800000E-01   12.0110           0
     15760 MEMB     119      POPC     H11A     HAL2     0.900000E-01   1.00800           0
     15761 MEMB     119      POPC     H11B     HAL2     0.900000E-01   1.00800           0
     15762 MEMB     119      POPC     P        PL       1.500000       30.9740           0
     15763 MEMB     119      POPC     O13      O2L     -0.780000       15.9994           0
     15764 MEMB     119      POPC     O14      O2L     -0.780000       15.9994           0
     15765 MEMB     119      POPC     O12      OSLP    -0.570000       15.9994           0
     15766 MEMB     119      POPC     O11      OSLP    -0.570000       15.9994           0
     15767 MEMB     119      POPC     C1       CTL2    -0.800000E-01   12.0110           0
     15768 MEMB     119      POPC     HA       HAL2     0.900000E-01   1.00800           0
     15769 MEMB     119      POPC     HB       HAL2     0.900000E-01   1.00800           0
     15770 MEMB     119      POPC     C2       CTL1     0.170000       12.0110           0
     15771 MEMB     119      POPC     HS       HAL1     0.900000E-01   1.00800           0
     15772 MEMB     119      POPC     O21      OSL     -0.490000       15.9994           0
     15773 MEMB     119      POPC     C21      CL       0.900000       12.0110           0
     15774 MEMB     119      POPC     O22      OBL     -0.630000       15.9994           0
     15775 MEMB     119      POPC     C22      CTL2    -0.220000       12.0110           0
     15776 MEMB     119      POPC     H2R      HAL2     0.900000E-01   1.00800           0
     15777 MEMB     119      POPC     H2S      HAL2     0.900000E-01   1.00800           0
     15778 MEMB     119      POPC     C3       CTL2     0.800000E-01   12.0110           0
     15779 MEMB     119      POPC     HX       HAL2     0.900000E-01   1.00800           0
     15780 MEMB     119      POPC     HY       HAL2     0.900000E-01   1.00800           0
     15781 MEMB     119      POPC     O31      OSL     -0.490000       15.9994           0
     15782 MEMB     119      POPC     C31      CL       0.900000       12.0110           0
     15783 MEMB     119      POPC     O32      OBL     -0.630000       15.9994           0
     15784 MEMB     119      POPC     C32      CTL2    -0.220000       12.0110           0
     15785 MEMB     119      POPC     H2X      HAL2     0.900000E-01   1.00800           0
     15786 MEMB     119      POPC     H2Y      HAL2     0.900000E-01   1.00800           0
     15787 MEMB     119      POPC     C23      CTL2    -0.180000       12.0110           0
     15788 MEMB     119      POPC     H3R      HAL2     0.900000E-01   1.00800           0
     15789 MEMB     119      POPC     H3S      HAL2     0.900000E-01   1.00800           0
     15790 MEMB     119      POPC     C24      CTL2    -0.180000       12.0110           0
     15791 MEMB     119      POPC     H4R      HAL2     0.900000E-01   1.00800           0
     15792 MEMB     119      POPC     H4S      HAL2     0.900000E-01   1.00800           0
     15793 MEMB     119      POPC     C25      CTL2    -0.180000       12.0110           0
     15794 MEMB     119      POPC     H5R      HAL2     0.900000E-01   1.00800           0
     15795 MEMB     119      POPC     H5S      HAL2     0.900000E-01   1.00800           0
     15796 MEMB     119      POPC     C26      CTL2    -0.180000       12.0110           0
     15797 MEMB     119      POPC     H6R      HAL2     0.900000E-01   1.00800           0
     15798 MEMB     119      POPC     H6S      HAL2     0.900000E-01   1.00800           0
     15799 MEMB     119      POPC     C27      CTL2    -0.180000       12.0110           0
     15800 MEMB     119      POPC     H7R      HAL2     0.900000E-01   1.00800           0
     15801 MEMB     119      POPC     H7S      HAL2     0.900000E-01   1.00800           0
     15802 MEMB     119      POPC     C28      CTL2    -0.180000       12.0110           0
     15803 MEMB     119      POPC     H8R      HAL2     0.900000E-01   1.00800           0
     15804 MEMB     119      POPC     H8S      HAL2     0.900000E-01   1.00800           0
     15805 MEMB     119      POPC     C29      CEL1    -0.150000       12.0110           0
     15806 MEMB     119      POPC     H91      HEL1     0.150000       1.00800           0
     15807 MEMB     119      POPC     C210     CEL1    -0.150000       12.0110           0
     15808 MEMB     119      POPC     H101     HEL1     0.150000       1.00800           0
     15809 MEMB     119      POPC     C211     CTL2    -0.180000       12.0110           0
     15810 MEMB     119      POPC     H11R     HAL2     0.900000E-01   1.00800           0
     15811 MEMB     119      POPC     H11S     HAL2     0.900000E-01   1.00800           0
     15812 MEMB     119      POPC     C212     CTL2    -0.180000       12.0110           0
     15813 MEMB     119      POPC     H12R     HAL2     0.900000E-01   1.00800           0
     15814 MEMB     119      POPC     H12S     HAL2     0.900000E-01   1.00800           0
     15815 MEMB     119      POPC     C213     CTL2    -0.180000       12.0110           0
     15816 MEMB     119      POPC     H13R     HAL2     0.900000E-01   1.00800           0
     15817 MEMB     119      POPC     H13S     HAL2     0.900000E-01   1.00800           0
     15818 MEMB     119      POPC     C214     CTL2    -0.180000       12.0110           0
     15819 MEMB     119      POPC     H14R     HAL2     0.900000E-01   1.00800           0
     15820 MEMB     119      POPC     H14S     HAL2     0.900000E-01   1.00800           0
     15821 MEMB     119      POPC     C215     CTL2    -0.180000       12.0110           0
     15822 MEMB     119      POPC     H15R     HAL2     0.900000E-01   1.00800           0
     15823 MEMB     119      POPC     H15S     HAL2     0.900000E-01   1.00800           0
     15824 MEMB     119      POPC     C216     CTL2    -0.180000       12.0110           0
     15825 MEMB     119      POPC     H16R     HAL2     0.900000E-01   1.00800           0
     15826 MEMB     119      POPC     H16S     HAL2     0.900000E-01   1.00800           0
     15827 MEMB     119      POPC     C217     CTL2    -0.180000       12.0110           0
     15828 MEMB     119      POPC     H17R     HAL2     0.900000E-01   1.00800           0
     15829 MEMB     119      POPC     H17S     HAL2     0.900000E-01   1.00800           0
     15830 MEMB     119      POPC     C218     CTL3    -0.270000       12.0110           0
     15831 MEMB     119      POPC     H18R     HAL3     0.900000E-01   1.00800           0
     15832 MEMB     119      POPC     H18S     HAL3     0.900000E-01   1.00800           0
     15833 MEMB     119      POPC     H18T     HAL3     0.900000E-01   1.00800           0
     15834 MEMB     119      POPC     C33      CTL2    -0.180000       12.0110           0
     15835 MEMB     119      POPC     H3X      HAL2     0.900000E-01   1.00800           0
     15836 MEMB     119      POPC     H3Y      HAL2     0.900000E-01   1.00800           0
     15837 MEMB     119      POPC     C34      CTL2    -0.180000       12.0110           0
     15838 MEMB     119      POPC     H4X      HAL2     0.900000E-01   1.00800           0
     15839 MEMB     119      POPC     H4Y      HAL2     0.900000E-01   1.00800           0
     15840 MEMB     119      POPC     C35      CTL2    -0.180000       12.0110           0
     15841 MEMB     119      POPC     H5X      HAL2     0.900000E-01   1.00800           0
     15842 MEMB     119      POPC     H5Y      HAL2     0.900000E-01   1.00800           0
     15843 MEMB     119      POPC     C36      CTL2    -0.180000       12.0110           0
     15844 MEMB     119      POPC     H6X      HAL2     0.900000E-01   1.00800           0
     15845 MEMB     119      POPC     H6Y      HAL2     0.900000E-01   1.00800           0
     15846 MEMB     119      POPC     C37      CTL2    -0.180000       12.0110           0
     15847 MEMB     119      POPC     H7X      HAL2     0.900000E-01   1.00800           0
     15848 MEMB     119      POPC     H7Y      HAL2     0.900000E-01   1.00800           0
     15849 MEMB     119      POPC     C38      CTL2    -0.180000       12.0110           0
     15850 MEMB     119      POPC     H8X      HAL2     0.900000E-01   1.00800           0
     15851 MEMB     119      POPC     H8Y      HAL2     0.900000E-01   1.00800           0
     15852 MEMB     119      POPC     C39      CTL2    -0.180000       12.0110           0
     15853 MEMB     119      POPC     H9X      HAL2     0.900000E-01   1.00800           0
     15854 MEMB     119      POPC     H9Y      HAL2     0.900000E-01   1.00800           0
     15855 MEMB     119      POPC     C310     CTL2    -0.180000       12.0110           0
     15856 MEMB     119      POPC     H10X     HAL2     0.900000E-01   1.00800           0
     15857 MEMB     119      POPC     H10Y     HAL2     0.900000E-01   1.00800           0
     15858 MEMB     119      POPC     C311     CTL2    -0.180000       12.0110           0
     15859 MEMB     119      POPC     H11X     HAL2     0.900000E-01   1.00800           0
     15860 MEMB     119      POPC     H11Y     HAL2     0.900000E-01   1.00800           0
     15861 MEMB     119      POPC     C312     CTL2    -0.180000       12.0110           0
     15862 MEMB     119      POPC     H12X     HAL2     0.900000E-01   1.00800           0
     15863 MEMB     119      POPC     H12Y     HAL2     0.900000E-01   1.00800           0
     15864 MEMB     119      POPC     C313     CTL2    -0.180000       12.0110           0
     15865 MEMB     119      POPC     H13X     HAL2     0.900000E-01   1.00800           0
     15866 MEMB     119      POPC     H13Y     HAL2     0.900000E-01   1.00800           0
     15867 MEMB     119      POPC     C314     CTL2    -0.180000       12.0110           0
     15868 MEMB     119      POPC     H14X     HAL2     0.900000E-01   1.00800           0
     15869 MEMB     119      POPC     H14Y     HAL2     0.900000E-01   1.00800           0
     15870 MEMB     119      POPC     C315     CTL2    -0.180000       12.0110           0
     15871 MEMB     119      POPC     H15X     HAL2     0.900000E-01   1.00800           0
     15872 MEMB     119      POPC     H15Y     HAL2     0.900000E-01   1.00800           0
     15873 MEMB     119      POPC     C316     CTL3    -0.270000       12.0110           0
     15874 MEMB     119      POPC     H16X     HAL3     0.900000E-01   1.00800           0
     15875 MEMB     119      POPC     H16Y     HAL3     0.900000E-01   1.00800           0
     15876 MEMB     119      POPC     H16Z     HAL3     0.900000E-01   1.00800           0
     15877 MEMB     120      POPC     N        NTL     -0.600000       14.0070           0
     15878 MEMB     120      POPC     C12      CTL2    -0.100000       12.0110           0
     15879 MEMB     120      POPC     H12A     HL       0.250000       1.00800           0
     15880 MEMB     120      POPC     H12B     HL       0.250000       1.00800           0
     15881 MEMB     120      POPC     C13      CTL5    -0.350000       12.0110           0
     15882 MEMB     120      POPC     H13A     HL       0.250000       1.00800           0
     15883 MEMB     120      POPC     H13B     HL       0.250000       1.00800           0
     15884 MEMB     120      POPC     H13C     HL       0.250000       1.00800           0
     15885 MEMB     120      POPC     C14      CTL5    -0.350000       12.0110           0
     15886 MEMB     120      POPC     H14A     HL       0.250000       1.00800           0
     15887 MEMB     120      POPC     H14B     HL       0.250000       1.00800           0
     15888 MEMB     120      POPC     H14C     HL       0.250000       1.00800           0
     15889 MEMB     120      POPC     C15      CTL5    -0.350000       12.0110           0
     15890 MEMB     120      POPC     H15A     HL       0.250000       1.00800           0
     15891 MEMB     120      POPC     H15B     HL       0.250000       1.00800           0
     15892 MEMB     120      POPC     H15C     HL       0.250000       1.00800           0
     15893 MEMB     120      POPC     C11      CTL2    -0.800000E-01   12.0110           0
     15894 MEMB     120      POPC     H11A     HAL2     0.900000E-01   1.00800           0
     15895 MEMB     120      POPC     H11B     HAL2     0.900000E-01   1.00800           0
     15896 MEMB     120      POPC     P        PL       1.500000       30.9740           0
     15897 MEMB     120      POPC     O13      O2L     -0.780000       15.9994           0
     15898 MEMB     120      POPC     O14      O2L     -0.780000       15.9994           0
     15899 MEMB     120      POPC     O12      OSLP    -0.570000       15.9994           0
     15900 MEMB     120      POPC     O11      OSLP    -0.570000       15.9994           0
     15901 MEMB     120      POPC     C1       CTL2    -0.800000E-01   12.0110           0
     15902 MEMB     120      POPC     HA       HAL2     0.900000E-01   1.00800           0
     15903 MEMB     120      POPC     HB       HAL2     0.900000E-01   1.00800           0
     15904 MEMB     120      POPC     C2       CTL1     0.170000       12.0110           0
     15905 MEMB     120      POPC     HS       HAL1     0.900000E-01   1.00800           0
     15906 MEMB     120      POPC     O21      OSL     -0.490000       15.9994           0
     15907 MEMB     120      POPC     C21      CL       0.900000       12.0110           0
     15908 MEMB     120      POPC     O22      OBL     -0.630000       15.9994           0
     15909 MEMB     120      POPC     C22      CTL2    -0.220000       12.0110           0
     15910 MEMB     120      POPC     H2R      HAL2     0.900000E-01   1.00800           0
     15911 MEMB     120      POPC     H2S      HAL2     0.900000E-01   1.00800           0
     15912 MEMB     120      POPC     C3       CTL2     0.800000E-01   12.0110           0
     15913 MEMB     120      POPC     HX       HAL2     0.900000E-01   1.00800           0
     15914 MEMB     120      POPC     HY       HAL2     0.900000E-01   1.00800           0
     15915 MEMB     120      POPC     O31      OSL     -0.490000       15.9994           0
     15916 MEMB     120      POPC     C31      CL       0.900000       12.0110           0
     15917 MEMB     120      POPC     O32      OBL     -0.630000       15.9994           0
     15918 MEMB     120      POPC     C32      CTL2    -0.220000       12.0110           0
     15919 MEMB     120      POPC     H2X      HAL2     0.900000E-01   1.00800           0
     15920 MEMB     120      POPC     H2Y      HAL2     0.900000E-01   1.00800           0
     15921 MEMB     120      POPC     C23      CTL2    -0.180000       12.0110           0
     15922 MEMB     120      POPC     H3R      HAL2     0.900000E-01   1.00800           0
     15923 MEMB     120      POPC     H3S      HAL2     0.900000E-01   1.00800           0
     15924 MEMB     120      POPC     C24      CTL2    -0.180000       12.0110           0
     15925 MEMB     120      POPC     H4R      HAL2     0.900000E-01   1.00800           0
     15926 MEMB     120      POPC     H4S      HAL2     0.900000E-01   1.00800           0
     15927 MEMB     120      POPC     C25      CTL2    -0.180000       12.0110           0
     15928 MEMB     120      POPC     H5R      HAL2     0.900000E-01   1.00800           0
     15929 MEMB     120      POPC     H5S      HAL2     0.900000E-01   1.00800           0
     15930 MEMB     120      POPC     C26      CTL2    -0.180000       12.0110           0
     15931 MEMB     120      POPC     H6R      HAL2     0.900000E-01   1.00800           0
     15932 MEMB     120      POPC     H6S      HAL2     0.900000E-01   1.00800           0
     15933 MEMB     120      POPC     C27      CTL2    -0.180000       12.0110           0
     15934 MEMB     120      POPC     H7R      HAL2     0.900000E-01   1.00800           0
     15935 MEMB     120      POPC     H7S      HAL2     0.900000E-01   1.00800           0
     15936 MEMB     120      POPC     C28      CTL2    -0.180000       12.0110           0
     15937 MEMB     120      POPC     H8R      HAL2     0.900000E-01   1.00800           0
     15938 MEMB     120      POPC     H8S      HAL2     0.900000E-01   1.00800           0
     15939 MEMB     120      POPC     C29      CEL1    -0.150000       12.0110           0
     15940 MEMB     120      POPC     H91      HEL1     0.150000       1.00800           0
     15941 MEMB     120      POPC     C210     CEL1    -0.150000       12.0110           0
     15942 MEMB     120      POPC     H101     HEL1     0.150000       1.00800           0
     15943 MEMB     120      POPC     C211     CTL2    -0.180000       12.0110           0
     15944 MEMB     120      POPC     H11R     HAL2     0.900000E-01   1.00800           0
     15945 MEMB     120      POPC     H11S     HAL2     0.900000E-01   1.00800           0
     15946 MEMB     120      POPC     C212     CTL2    -0.180000       12.0110           0
     15947 MEMB     120      POPC     H12R     HAL2     0.900000E-01   1.00800           0
     15948 MEMB     120      POPC     H12S     HAL2     0.900000E-01   1.00800           0
     15949 MEMB     120      POPC     C213     CTL2    -0.180000       12.0110           0
     15950 MEMB     120      POPC     H13R     HAL2     0.900000E-01   1.00800           0
     15951 MEMB     120      POPC     H13S     HAL2     0.900000E-01   1.00800           0
     15952 MEMB     120      POPC     C214     CTL2    -0.180000       12.0110           0
     15953 MEMB     120      POPC     H14R     HAL2     0.900000E-01   1.00800           0
     15954 MEMB     120      POPC     H14S     HAL2     0.900000E-01   1.00800           0
     15955 MEMB     120      POPC     C215     CTL2    -0.180000       12.0110           0
     15956 MEMB     120      POPC     H15R     HAL2     0.900000E-01   1.00800           0
     15957 MEMB     120      POPC     H15S     HAL2     0.900000E-01   1.00800           0
     15958 MEMB     120      POPC     C216     CTL2    -0.180000       12.0110           0
     15959 MEMB     120      POPC     H16R     HAL2     0.900000E-01   1.00800           0
     15960 MEMB     120      POPC     H16S     HAL2     0.900000E-01   1.00800           0
     15961 MEMB     120      POPC     C217     CTL2    -0.180000       12.0110           0
     15962 MEMB     120      POPC     H17R     HAL2     0.900000E-01   1.00800           0
     15963 MEMB     120      POPC     H17S     HAL2     0.900000E-01   1.00800           0
     15964 MEMB     120      POPC     C218     CTL3    -0.270000       12.0110           0
     15965 MEMB     120      POPC     H18R     HAL3     0.900000E-01   1.00800           0
     15966 MEMB     120      POPC     H18S     HAL3     0.900000E-01   1.00800           0
     15967 MEMB     120      POPC     H18T     HAL3     0.900000E-01   1.00800           0
     15968 MEMB     120      POPC     C33      CTL2    -0.180000       12.0110           0
     15969 MEMB     120      POPC     H3X      HAL2     0.900000E-01   1.00800           0
     15970 MEMB     120      POPC     H3Y      HAL2     0.900000E-01   1.00800           0
     15971 MEMB     120      POPC     C34      CTL2    -0.180000       12.0110           0
     15972 MEMB     120      POPC     H4X      HAL2     0.900000E-01   1.00800           0
     15973 MEMB     120      POPC     H4Y      HAL2     0.900000E-01   1.00800           0
     15974 MEMB     120      POPC     C35      CTL2    -0.180000       12.0110           0
     15975 MEMB     120      POPC     H5X      HAL2     0.900000E-01   1.00800           0
     15976 MEMB     120      POPC     H5Y      HAL2     0.900000E-01   1.00800           0
     15977 MEMB     120      POPC     C36      CTL2    -0.180000       12.0110           0
     15978 MEMB     120      POPC     H6X      HAL2     0.900000E-01   1.00800           0
     15979 MEMB     120      POPC     H6Y      HAL2     0.900000E-01   1.00800           0
     15980 MEMB     120      POPC     C37      CTL2    -0.180000       12.0110           0
     15981 MEMB     120      POPC     H7X      HAL2     0.900000E-01   1.00800           0
     15982 MEMB     120      POPC     H7Y      HAL2     0.900000E-01   1.00800           0
     15983 MEMB     120      POPC     C38      CTL2    -0.180000       12.0110           0
     15984 MEMB     120      POPC     H8X      HAL2     0.900000E-01   1.00800           0
     15985 MEMB     120      POPC     H8Y      HAL2     0.900000E-01   1.00800           0
     15986 MEMB     120      POPC     C39      CTL2    -0.180000       12.0110           0
     15987 MEMB     120      POPC     H9X      HAL2     0.900000E-01   1.00800           0
     15988 MEMB     120      POPC     H9Y      HAL2     0.900000E-01   1.00800           0
     15989 MEMB     120      POPC     C310     CTL2    -0.180000       12.0110           0
     15990 MEMB     120      POPC     H10X     HAL2     0.900000E-01   1.00800           0
     15991 MEMB     120      POPC     H10Y     HAL2     0.900000E-01   1.00800           0
     15992 MEMB     120      POPC     C311     CTL2    -0.180000       12.0110           0
     15993 MEMB     120      POPC     H11X     HAL2     0.900000E-01   1.00800           0
     15994 MEMB     120      POPC     H11Y     HAL2     0.900000E-01   1.00800           0
     15995 MEMB     120      POPC     C312     CTL2    -0.180000       12.0110           0
     15996 MEMB     120      POPC     H12X     HAL2     0.900000E-01   1.00800           0
     15997 MEMB     120      POPC     H12Y     HAL2     0.900000E-01   1.00800           0
     15998 MEMB     120      POPC     C313     CTL2    -0.180000       12.0110           0
     15999 MEMB     120      POPC     H13X     HAL2     0.900000E-01   1.00800           0
     16000 MEMB     120      POPC     H13Y     HAL2     0.900000E-01   1.00800           0
     16001 MEMB     120      POPC     C314     CTL2    -0.180000       12.0110           0
     16002 MEMB     120      POPC     H14X     HAL2     0.900000E-01   1.00800           0
     16003 MEMB     120      POPC     H14Y     HAL2     0.900000E-01   1.00800           0
     16004 MEMB     120      POPC     C315     CTL2    -0.180000       12.0110           0
     16005 MEMB     120      POPC     H15X     HAL2     0.900000E-01   1.00800           0
     16006 MEMB     120      POPC     H15Y     HAL2     0.900000E-01   1.00800           0
     16007 MEMB     120      POPC     C316     CTL3    -0.270000       12.0110           0
     16008 MEMB     120      POPC     H16X     HAL3     0.900000E-01   1.00800           0
     16009 MEMB     120      POPC     H16Y     HAL3     0.900000E-01   1.00800           0
     16010 MEMB     120      POPC     H16Z     HAL3     0.900000E-01   1.00800           0
     16011 MEMB     121      POPC     N        NTL     -0.600000       14.0070           0
     16012 MEMB     121      POPC     C12      CTL2    -0.100000       12.0110           0
     16013 MEMB     121      POPC     H12A     HL       0.250000       1.00800           0
     16014 MEMB     121      POPC     H12B     HL       0.250000       1.00800           0
     16015 MEMB     121      POPC     C13      CTL5    -0.350000       12.0110           0
     16016 MEMB     121      POPC     H13A     HL       0.250000       1.00800           0
     16017 MEMB     121      POPC     H13B     HL       0.250000       1.00800           0
     16018 MEMB     121      POPC     H13C     HL       0.250000       1.00800           0
     16019 MEMB     121      POPC     C14      CTL5    -0.350000       12.0110           0
     16020 MEMB     121      POPC     H14A     HL       0.250000       1.00800           0
     16021 MEMB     121      POPC     H14B     HL       0.250000       1.00800           0
     16022 MEMB     121      POPC     H14C     HL       0.250000       1.00800           0
     16023 MEMB     121      POPC     C15      CTL5    -0.350000       12.0110           0
     16024 MEMB     121      POPC     H15A     HL       0.250000       1.00800           0
     16025 MEMB     121      POPC     H15B     HL       0.250000       1.00800           0
     16026 MEMB     121      POPC     H15C     HL       0.250000       1.00800           0
     16027 MEMB     121      POPC     C11      CTL2    -0.800000E-01   12.0110           0
     16028 MEMB     121      POPC     H11A     HAL2     0.900000E-01   1.00800           0
     16029 MEMB     121      POPC     H11B     HAL2     0.900000E-01   1.00800           0
     16030 MEMB     121      POPC     P        PL       1.500000       30.9740           0
     16031 MEMB     121      POPC     O13      O2L     -0.780000       15.9994           0
     16032 MEMB     121      POPC     O14      O2L     -0.780000       15.9994           0
     16033 MEMB     121      POPC     O12      OSLP    -0.570000       15.9994           0
     16034 MEMB     121      POPC     O11      OSLP    -0.570000       15.9994           0
     16035 MEMB     121      POPC     C1       CTL2    -0.800000E-01   12.0110           0
     16036 MEMB     121      POPC     HA       HAL2     0.900000E-01   1.00800           0
     16037 MEMB     121      POPC     HB       HAL2     0.900000E-01   1.00800           0
     16038 MEMB     121      POPC     C2       CTL1     0.170000       12.0110           0
     16039 MEMB     121      POPC     HS       HAL1     0.900000E-01   1.00800           0
     16040 MEMB     121      POPC     O21      OSL     -0.490000       15.9994           0
     16041 MEMB     121      POPC     C21      CL       0.900000       12.0110           0
     16042 MEMB     121      POPC     O22      OBL     -0.630000       15.9994           0
     16043 MEMB     121      POPC     C22      CTL2    -0.220000       12.0110           0
     16044 MEMB     121      POPC     H2R      HAL2     0.900000E-01   1.00800           0
     16045 MEMB     121      POPC     H2S      HAL2     0.900000E-01   1.00800           0
     16046 MEMB     121      POPC     C3       CTL2     0.800000E-01   12.0110           0
     16047 MEMB     121      POPC     HX       HAL2     0.900000E-01   1.00800           0
     16048 MEMB     121      POPC     HY       HAL2     0.900000E-01   1.00800           0
     16049 MEMB     121      POPC     O31      OSL     -0.490000       15.9994           0
     16050 MEMB     121      POPC     C31      CL       0.900000       12.0110           0
     16051 MEMB     121      POPC     O32      OBL     -0.630000       15.9994           0
     16052 MEMB     121      POPC     C32      CTL2    -0.220000       12.0110           0
     16053 MEMB     121      POPC     H2X      HAL2     0.900000E-01   1.00800           0
     16054 MEMB     121      POPC     H2Y      HAL2     0.900000E-01   1.00800           0
     16055 MEMB     121      POPC     C23      CTL2    -0.180000       12.0110           0
     16056 MEMB     121      POPC     H3R      HAL2     0.900000E-01   1.00800           0
     16057 MEMB     121      POPC     H3S      HAL2     0.900000E-01   1.00800           0
     16058 MEMB     121      POPC     C24      CTL2    -0.180000       12.0110           0
     16059 MEMB     121      POPC     H4R      HAL2     0.900000E-01   1.00800           0
     16060 MEMB     121      POPC     H4S      HAL2     0.900000E-01   1.00800           0
     16061 MEMB     121      POPC     C25      CTL2    -0.180000       12.0110           0
     16062 MEMB     121      POPC     H5R      HAL2     0.900000E-01   1.00800           0
     16063 MEMB     121      POPC     H5S      HAL2     0.900000E-01   1.00800           0
     16064 MEMB     121      POPC     C26      CTL2    -0.180000       12.0110           0
     16065 MEMB     121      POPC     H6R      HAL2     0.900000E-01   1.00800           0
     16066 MEMB     121      POPC     H6S      HAL2     0.900000E-01   1.00800           0
     16067 MEMB     121      POPC     C27      CTL2    -0.180000       12.0110           0
     16068 MEMB     121      POPC     H7R      HAL2     0.900000E-01   1.00800           0
     16069 MEMB     121      POPC     H7S      HAL2     0.900000E-01   1.00800           0
     16070 MEMB     121      POPC     C28      CTL2    -0.180000       12.0110           0
     16071 MEMB     121      POPC     H8R      HAL2     0.900000E-01   1.00800           0
     16072 MEMB     121      POPC     H8S      HAL2     0.900000E-01   1.00800           0
     16073 MEMB     121      POPC     C29      CEL1    -0.150000       12.0110           0
     16074 MEMB     121      POPC     H91      HEL1     0.150000       1.00800           0
     16075 MEMB     121      POPC     C210     CEL1    -0.150000       12.0110           0
     16076 MEMB     121      POPC     H101     HEL1     0.150000       1.00800           0
     16077 MEMB     121      POPC     C211     CTL2    -0.180000       12.0110           0
     16078 MEMB     121      POPC     H11R     HAL2     0.900000E-01   1.00800           0
     16079 MEMB     121      POPC     H11S     HAL2     0.900000E-01   1.00800           0
     16080 MEMB     121      POPC     C212     CTL2    -0.180000       12.0110           0
     16081 MEMB     121      POPC     H12R     HAL2     0.900000E-01   1.00800           0
     16082 MEMB     121      POPC     H12S     HAL2     0.900000E-01   1.00800           0
     16083 MEMB     121      POPC     C213     CTL2    -0.180000       12.0110           0
     16084 MEMB     121      POPC     H13R     HAL2     0.900000E-01   1.00800           0
     16085 MEMB     121      POPC     H13S     HAL2     0.900000E-01   1.00800           0
     16086 MEMB     121      POPC     C214     CTL2    -0.180000       12.0110           0
     16087 MEMB     121      POPC     H14R     HAL2     0.900000E-01   1.00800           0
     16088 MEMB     121      POPC     H14S     HAL2     0.900000E-01   1.00800           0
     16089 MEMB     121      POPC     C215     CTL2    -0.180000       12.0110           0
     16090 MEMB     121      POPC     H15R     HAL2     0.900000E-01   1.00800           0
     16091 MEMB     121      POPC     H15S     HAL2     0.900000E-01   1.00800           0
     16092 MEMB     121      POPC     C216     CTL2    -0.180000       12.0110           0
     16093 MEMB     121      POPC     H16R     HAL2     0.900000E-01   1.00800           0
     16094 MEMB     121      POPC     H16S     HAL2     0.900000E-01   1.00800           0
     16095 MEMB     121      POPC     C217     CTL2    -0.180000       12.0110           0
     16096 MEMB     121      POPC     H17R     HAL2     0.900000E-01   1.00800           0
     16097 MEMB     121      POPC     H17S     HAL2     0.900000E-01   1.00800           0
     16098 MEMB     121      POPC     C218     CTL3    -0.270000       12.0110           0
     16099 MEMB     121      POPC     H18R     HAL3     0.900000E-01   1.00800           0
     16100 MEMB     121      POPC     H18S     HAL3     0.900000E-01   1.00800           0
     16101 MEMB     121      POPC     H18T     HAL3     0.900000E-01   1.00800           0
     16102 MEMB     121      POPC     C33      CTL2    -0.180000       12.0110           0
     16103 MEMB     121      POPC     H3X      HAL2     0.900000E-01   1.00800           0
     16104 MEMB     121      POPC     H3Y      HAL2     0.900000E-01   1.00800           0
     16105 MEMB     121      POPC     C34      CTL2    -0.180000       12.0110           0
     16106 MEMB     121      POPC     H4X      HAL2     0.900000E-01   1.00800           0
     16107 MEMB     121      POPC     H4Y      HAL2     0.900000E-01   1.00800           0
     16108 MEMB     121      POPC     C35      CTL2    -0.180000       12.0110           0
     16109 MEMB     121      POPC     H5X      HAL2     0.900000E-01   1.00800           0
     16110 MEMB     121      POPC     H5Y      HAL2     0.900000E-01   1.00800           0
     16111 MEMB     121      POPC     C36      CTL2    -0.180000       12.0110           0
     16112 MEMB     121      POPC     H6X      HAL2     0.900000E-01   1.00800           0
     16113 MEMB     121      POPC     H6Y      HAL2     0.900000E-01   1.00800           0
     16114 MEMB     121      POPC     C37      CTL2    -0.180000       12.0110           0
     16115 MEMB     121      POPC     H7X      HAL2     0.900000E-01   1.00800           0
     16116 MEMB     121      POPC     H7Y      HAL2     0.900000E-01   1.00800           0
     16117 MEMB     121      POPC     C38      CTL2    -0.180000       12.0110           0
     16118 MEMB     121      POPC     H8X      HAL2     0.900000E-01   1.00800           0
     16119 MEMB     121      POPC     H8Y      HAL2     0.900000E-01   1.00800           0
     16120 MEMB     121      POPC     C39      CTL2    -0.180000       12.0110           0
     16121 MEMB     121      POPC     H9X      HAL2     0.900000E-01   1.00800           0
     16122 MEMB     121      POPC     H9Y      HAL2     0.900000E-01   1.00800           0
     16123 MEMB     121      POPC     C310     CTL2    -0.180000       12.0110           0
     16124 MEMB     121      POPC     H10X     HAL2     0.900000E-01   1.00800           0
     16125 MEMB     121      POPC     H10Y     HAL2     0.900000E-01   1.00800           0
     16126 MEMB     121      POPC     C311     CTL2    -0.180000       12.0110           0
     16127 MEMB     121      POPC     H11X     HAL2     0.900000E-01   1.00800           0
     16128 MEMB     121      POPC     H11Y     HAL2     0.900000E-01   1.00800           0
     16129 MEMB     121      POPC     C312     CTL2    -0.180000       12.0110           0
     16130 MEMB     121      POPC     H12X     HAL2     0.900000E-01   1.00800           0
     16131 MEMB     121      POPC     H12Y     HAL2     0.900000E-01   1.00800           0
     16132 MEMB     121      POPC     C313     CTL2    -0.180000       12.0110           0
     16133 MEMB     121      POPC     H13X     HAL2     0.900000E-01   1.00800           0
     16134 MEMB     121      POPC     H13Y     HAL2     0.900000E-01   1.00800           0
     16135 MEMB     121      POPC     C314     CTL2    -0.180000       12.0110           0
     16136 MEMB     121      POPC     H14X     HAL2     0.900000E-01   1.00800           0
     16137 MEMB     121      POPC     H14Y     HAL2     0.900000E-01   1.00800           0
     16138 MEMB     121      POPC     C315     CTL2    -0.180000       12.0110           0
     16139 MEMB     121      POPC     H15X     HAL2     0.900000E-01   1.00800           0
     16140 MEMB     121      POPC     H15Y     HAL2     0.900000E-01   1.00800           0
     16141 MEMB     121      POPC     C316     CTL3    -0.270000       12.0110           0
     16142 MEMB     121      POPC     H16X     HAL3     0.900000E-01   1.00800           0
     16143 MEMB     121      POPC     H16Y     HAL3     0.900000E-01   1.00800           0
     16144 MEMB     121      POPC     H16Z     HAL3     0.900000E-01   1.00800           0
     16145 MEMB     122      POPC     N        NTL     -0.600000       14.0070           0
     16146 MEMB     122      POPC     C12      CTL2    -0.100000       12.0110           0
     16147 MEMB     122      POPC     H12A     HL       0.250000       1.00800           0
     16148 MEMB     122      POPC     H12B     HL       0.250000       1.00800           0
     16149 MEMB     122      POPC     C13      CTL5    -0.350000       12.0110           0
     16150 MEMB     122      POPC     H13A     HL       0.250000       1.00800           0
     16151 MEMB     122      POPC     H13B     HL       0.250000       1.00800           0
     16152 MEMB     122      POPC     H13C     HL       0.250000       1.00800           0
     16153 MEMB     122      POPC     C14      CTL5    -0.350000       12.0110           0
     16154 MEMB     122      POPC     H14A     HL       0.250000       1.00800           0
     16155 MEMB     122      POPC     H14B     HL       0.250000       1.00800           0
     16156 MEMB     122      POPC     H14C     HL       0.250000       1.00800           0
     16157 MEMB     122      POPC     C15      CTL5    -0.350000       12.0110           0
     16158 MEMB     122      POPC     H15A     HL       0.250000       1.00800           0
     16159 MEMB     122      POPC     H15B     HL       0.250000       1.00800           0
     16160 MEMB     122      POPC     H15C     HL       0.250000       1.00800           0
     16161 MEMB     122      POPC     C11      CTL2    -0.800000E-01   12.0110           0
     16162 MEMB     122      POPC     H11A     HAL2     0.900000E-01   1.00800           0
     16163 MEMB     122      POPC     H11B     HAL2     0.900000E-01   1.00800           0
     16164 MEMB     122      POPC     P        PL       1.500000       30.9740           0
     16165 MEMB     122      POPC     O13      O2L     -0.780000       15.9994           0
     16166 MEMB     122      POPC     O14      O2L     -0.780000       15.9994           0
     16167 MEMB     122      POPC     O12      OSLP    -0.570000       15.9994           0
     16168 MEMB     122      POPC     O11      OSLP    -0.570000       15.9994           0
     16169 MEMB     122      POPC     C1       CTL2    -0.800000E-01   12.0110           0
     16170 MEMB     122      POPC     HA       HAL2     0.900000E-01   1.00800           0
     16171 MEMB     122      POPC     HB       HAL2     0.900000E-01   1.00800           0
     16172 MEMB     122      POPC     C2       CTL1     0.170000       12.0110           0
     16173 MEMB     122      POPC     HS       HAL1     0.900000E-01   1.00800           0
     16174 MEMB     122      POPC     O21      OSL     -0.490000       15.9994           0
     16175 MEMB     122      POPC     C21      CL       0.900000       12.0110           0
     16176 MEMB     122      POPC     O22      OBL     -0.630000       15.9994           0
     16177 MEMB     122      POPC     C22      CTL2    -0.220000       12.0110           0
     16178 MEMB     122      POPC     H2R      HAL2     0.900000E-01   1.00800           0
     16179 MEMB     122      POPC     H2S      HAL2     0.900000E-01   1.00800           0
     16180 MEMB     122      POPC     C3       CTL2     0.800000E-01   12.0110           0
     16181 MEMB     122      POPC     HX       HAL2     0.900000E-01   1.00800           0
     16182 MEMB     122      POPC     HY       HAL2     0.900000E-01   1.00800           0
     16183 MEMB     122      POPC     O31      OSL     -0.490000       15.9994           0
     16184 MEMB     122      POPC     C31      CL       0.900000       12.0110           0
     16185 MEMB     122      POPC     O32      OBL     -0.630000       15.9994           0
     16186 MEMB     122      POPC     C32      CTL2    -0.220000       12.0110           0
     16187 MEMB     122      POPC     H2X      HAL2     0.900000E-01   1.00800           0
     16188 MEMB     122      POPC     H2Y      HAL2     0.900000E-01   1.00800           0
     16189 MEMB     122      POPC     C23      CTL2    -0.180000       12.0110           0
     16190 MEMB     122      POPC     H3R      HAL2     0.900000E-01   1.00800           0
     16191 MEMB     122      POPC     H3S      HAL2     0.900000E-01   1.00800           0
     16192 MEMB     122      POPC     C24      CTL2    -0.180000       12.0110           0
     16193 MEMB     122      POPC     H4R      HAL2     0.900000E-01   1.00800           0
     16194 MEMB     122      POPC     H4S      HAL2     0.900000E-01   1.00800           0
     16195 MEMB     122      POPC     C25      CTL2    -0.180000       12.0110           0
     16196 MEMB     122      POPC     H5R      HAL2     0.900000E-01   1.00800           0
     16197 MEMB     122      POPC     H5S      HAL2     0.900000E-01   1.00800           0
     16198 MEMB     122      POPC     C26      CTL2    -0.180000       12.0110           0
     16199 MEMB     122      POPC     H6R      HAL2     0.900000E-01   1.00800           0
     16200 MEMB     122      POPC     H6S      HAL2     0.900000E-01   1.00800           0
     16201 MEMB     122      POPC     C27      CTL2    -0.180000       12.0110           0
     16202 MEMB     122      POPC     H7R      HAL2     0.900000E-01   1.00800           0
     16203 MEMB     122      POPC     H7S      HAL2     0.900000E-01   1.00800           0
     16204 MEMB     122      POPC     C28      CTL2    -0.180000       12.0110           0
     16205 MEMB     122      POPC     H8R      HAL2     0.900000E-01   1.00800           0
     16206 MEMB     122      POPC     H8S      HAL2     0.900000E-01   1.00800           0
     16207 MEMB     122      POPC     C29      CEL1    -0.150000       12.0110           0
     16208 MEMB     122      POPC     H91      HEL1     0.150000       1.00800           0
     16209 MEMB     122      POPC     C210     CEL1    -0.150000       12.0110           0
     16210 MEMB     122      POPC     H101     HEL1     0.150000       1.00800           0
     16211 MEMB     122      POPC     C211     CTL2    -0.180000       12.0110           0
     16212 MEMB     122      POPC     H11R     HAL2     0.900000E-01   1.00800           0
     16213 MEMB     122      POPC     H11S     HAL2     0.900000E-01   1.00800           0
     16214 MEMB     122      POPC     C212     CTL2    -0.180000       12.0110           0
     16215 MEMB     122      POPC     H12R     HAL2     0.900000E-01   1.00800           0
     16216 MEMB     122      POPC     H12S     HAL2     0.900000E-01   1.00800           0
     16217 MEMB     122      POPC     C213     CTL2    -0.180000       12.0110           0
     16218 MEMB     122      POPC     H13R     HAL2     0.900000E-01   1.00800           0
     16219 MEMB     122      POPC     H13S     HAL2     0.900000E-01   1.00800           0
     16220 MEMB     122      POPC     C214     CTL2    -0.180000       12.0110           0
     16221 MEMB     122      POPC     H14R     HAL2     0.900000E-01   1.00800           0
     16222 MEMB     122      POPC     H14S     HAL2     0.900000E-01   1.00800           0
     16223 MEMB     122      POPC     C215     CTL2    -0.180000       12.0110           0
     16224 MEMB     122      POPC     H15R     HAL2     0.900000E-01   1.00800           0
     16225 MEMB     122      POPC     H15S     HAL2     0.900000E-01   1.00800           0
     16226 MEMB     122      POPC     C216     CTL2    -0.180000       12.0110           0
     16227 MEMB     122      POPC     H16R     HAL2     0.900000E-01   1.00800           0
     16228 MEMB     122      POPC     H16S     HAL2     0.900000E-01   1.00800           0
     16229 MEMB     122      POPC     C217     CTL2    -0.180000       12.0110           0
     16230 MEMB     122      POPC     H17R     HAL2     0.900000E-01   1.00800           0
     16231 MEMB     122      POPC     H17S     HAL2     0.900000E-01   1.00800           0
     16232 MEMB     122      POPC     C218     CTL3    -0.270000       12.0110           0
     16233 MEMB     122      POPC     H18R     HAL3     0.900000E-01   1.00800           0
     16234 MEMB     122      POPC     H18S     HAL3     0.900000E-01   1.00800           0
     16235 MEMB     122      POPC     H18T     HAL3     0.900000E-01   1.00800           0
     16236 MEMB     122      POPC     C33      CTL2    -0.180000       12.0110           0
     16237 MEMB     122      POPC     H3X      HAL2     0.900000E-01   1.00800           0
     16238 MEMB     122      POPC     H3Y      HAL2     0.900000E-01   1.00800           0
     16239 MEMB     122      POPC     C34      CTL2    -0.180000       12.0110           0
     16240 MEMB     122      POPC     H4X      HAL2     0.900000E-01   1.00800           0
     16241 MEMB     122      POPC     H4Y      HAL2     0.900000E-01   1.00800           0
     16242 MEMB     122      POPC     C35      CTL2    -0.180000       12.0110           0
     16243 MEMB     122      POPC     H5X      HAL2     0.900000E-01   1.00800           0
     16244 MEMB     122      POPC     H5Y      HAL2     0.900000E-01   1.00800           0
     16245 MEMB     122      POPC     C36      CTL2    -0.180000       12.0110           0
     16246 MEMB     122      POPC     H6X      HAL2     0.900000E-01   1.00800           0
     16247 MEMB     122      POPC     H6Y      HAL2     0.900000E-01   1.00800           0
     16248 MEMB     122      POPC     C37      CTL2    -0.180000       12.0110           0
     16249 MEMB     122      POPC     H7X      HAL2     0.900000E-01   1.00800           0
     16250 MEMB     122      POPC     H7Y      HAL2     0.900000E-01   1.00800           0
     16251 MEMB     122      POPC     C38      CTL2    -0.180000       12.0110           0
     16252 MEMB     122      POPC     H8X      HAL2     0.900000E-01   1.00800           0
     16253 MEMB     122      POPC     H8Y      HAL2     0.900000E-01   1.00800           0
     16254 MEMB     122      POPC     C39      CTL2    -0.180000       12.0110           0
     16255 MEMB     122      POPC     H9X      HAL2     0.900000E-01   1.00800           0
     16256 MEMB     122      POPC     H9Y      HAL2     0.900000E-01   1.00800           0
     16257 MEMB     122      POPC     C310     CTL2    -0.180000       12.0110           0
     16258 MEMB     122      POPC     H10X     HAL2     0.900000E-01   1.00800           0
     16259 MEMB     122      POPC     H10Y     HAL2     0.900000E-01   1.00800           0
     16260 MEMB     122      POPC     C311     CTL2    -0.180000       12.0110           0
     16261 MEMB     122      POPC     H11X     HAL2     0.900000E-01   1.00800           0
     16262 MEMB     122      POPC     H11Y     HAL2     0.900000E-01   1.00800           0
     16263 MEMB     122      POPC     C312     CTL2    -0.180000       12.0110           0
     16264 MEMB     122      POPC     H12X     HAL2     0.900000E-01   1.00800           0
     16265 MEMB     122      POPC     H12Y     HAL2     0.900000E-01   1.00800           0
     16266 MEMB     122      POPC     C313     CTL2    -0.180000       12.0110           0
     16267 MEMB     122      POPC     H13X     HAL2     0.900000E-01   1.00800           0
     16268 MEMB     122      POPC     H13Y     HAL2     0.900000E-01   1.00800           0
     16269 MEMB     122      POPC     C314     CTL2    -0.180000       12.0110           0
     16270 MEMB     122      POPC     H14X     HAL2     0.900000E-01   1.00800           0
     16271 MEMB     122      POPC     H14Y     HAL2     0.900000E-01   1.00800           0
     16272 MEMB     122      POPC     C315     CTL2    -0.180000       12.0110           0
     16273 MEMB     122      POPC     H15X     HAL2     0.900000E-01   1.00800           0
     16274 MEMB     122      POPC     H15Y     HAL2     0.900000E-01   1.00800           0
     16275 MEMB     122      POPC     C316     CTL3    -0.270000       12.0110           0
     16276 MEMB     122      POPC     H16X     HAL3     0.900000E-01   1.00800           0
     16277 MEMB     122      POPC     H16Y     HAL3     0.900000E-01   1.00800           0
     16278 MEMB     122      POPC     H16Z     HAL3     0.900000E-01   1.00800           0
     16279 MEMB     123      POPC     N        NTL     -0.600000       14.0070           0
     16280 MEMB     123      POPC     C12      CTL2    -0.100000       12.0110           0
     16281 MEMB     123      POPC     H12A     HL       0.250000       1.00800           0
     16282 MEMB     123      POPC     H12B     HL       0.250000       1.00800           0
     16283 MEMB     123      POPC     C13      CTL5    -0.350000       12.0110           0
     16284 MEMB     123      POPC     H13A     HL       0.250000       1.00800           0
     16285 MEMB     123      POPC     H13B     HL       0.250000       1.00800           0
     16286 MEMB     123      POPC     H13C     HL       0.250000       1.00800           0
     16287 MEMB     123      POPC     C14      CTL5    -0.350000       12.0110           0
     16288 MEMB     123      POPC     H14A     HL       0.250000       1.00800           0
     16289 MEMB     123      POPC     H14B     HL       0.250000       1.00800           0
     16290 MEMB     123      POPC     H14C     HL       0.250000       1.00800           0
     16291 MEMB     123      POPC     C15      CTL5    -0.350000       12.0110           0
     16292 MEMB     123      POPC     H15A     HL       0.250000       1.00800           0
     16293 MEMB     123      POPC     H15B     HL       0.250000       1.00800           0
     16294 MEMB     123      POPC     H15C     HL       0.250000       1.00800           0
     16295 MEMB     123      POPC     C11      CTL2    -0.800000E-01   12.0110           0
     16296 MEMB     123      POPC     H11A     HAL2     0.900000E-01   1.00800           0
     16297 MEMB     123      POPC     H11B     HAL2     0.900000E-01   1.00800           0
     16298 MEMB     123      POPC     P        PL       1.500000       30.9740           0
     16299 MEMB     123      POPC     O13      O2L     -0.780000       15.9994           0
     16300 MEMB     123      POPC     O14      O2L     -0.780000       15.9994           0
     16301 MEMB     123      POPC     O12      OSLP    -0.570000       15.9994           0
     16302 MEMB     123      POPC     O11      OSLP    -0.570000       15.9994           0
     16303 MEMB     123      POPC     C1       CTL2    -0.800000E-01   12.0110           0
     16304 MEMB     123      POPC     HA       HAL2     0.900000E-01   1.00800           0
     16305 MEMB     123      POPC     HB       HAL2     0.900000E-01   1.00800           0
     16306 MEMB     123      POPC     C2       CTL1     0.170000       12.0110           0
     16307 MEMB     123      POPC     HS       HAL1     0.900000E-01   1.00800           0
     16308 MEMB     123      POPC     O21      OSL     -0.490000       15.9994           0
     16309 MEMB     123      POPC     C21      CL       0.900000       12.0110           0
     16310 MEMB     123      POPC     O22      OBL     -0.630000       15.9994           0
     16311 MEMB     123      POPC     C22      CTL2    -0.220000       12.0110           0
     16312 MEMB     123      POPC     H2R      HAL2     0.900000E-01   1.00800           0
     16313 MEMB     123      POPC     H2S      HAL2     0.900000E-01   1.00800           0
     16314 MEMB     123      POPC     C3       CTL2     0.800000E-01   12.0110           0
     16315 MEMB     123      POPC     HX       HAL2     0.900000E-01   1.00800           0
     16316 MEMB     123      POPC     HY       HAL2     0.900000E-01   1.00800           0
     16317 MEMB     123      POPC     O31      OSL     -0.490000       15.9994           0
     16318 MEMB     123      POPC     C31      CL       0.900000       12.0110           0
     16319 MEMB     123      POPC     O32      OBL     -0.630000       15.9994           0
     16320 MEMB     123      POPC     C32      CTL2    -0.220000       12.0110           0
     16321 MEMB     123      POPC     H2X      HAL2     0.900000E-01   1.00800           0
     16322 MEMB     123      POPC     H2Y      HAL2     0.900000E-01   1.00800           0
     16323 MEMB     123      POPC     C23      CTL2    -0.180000       12.0110           0
     16324 MEMB     123      POPC     H3R      HAL2     0.900000E-01   1.00800           0
     16325 MEMB     123      POPC     H3S      HAL2     0.900000E-01   1.00800           0
     16326 MEMB     123      POPC     C24      CTL2    -0.180000       12.0110           0
     16327 MEMB     123      POPC     H4R      HAL2     0.900000E-01   1.00800           0
     16328 MEMB     123      POPC     H4S      HAL2     0.900000E-01   1.00800           0
     16329 MEMB     123      POPC     C25      CTL2    -0.180000       12.0110           0
     16330 MEMB     123      POPC     H5R      HAL2     0.900000E-01   1.00800           0
     16331 MEMB     123      POPC     H5S      HAL2     0.900000E-01   1.00800           0
     16332 MEMB     123      POPC     C26      CTL2    -0.180000       12.0110           0
     16333 MEMB     123      POPC     H6R      HAL2     0.900000E-01   1.00800           0
     16334 MEMB     123      POPC     H6S      HAL2     0.900000E-01   1.00800           0
     16335 MEMB     123      POPC     C27      CTL2    -0.180000       12.0110           0
     16336 MEMB     123      POPC     H7R      HAL2     0.900000E-01   1.00800           0
     16337 MEMB     123      POPC     H7S      HAL2     0.900000E-01   1.00800           0
     16338 MEMB     123      POPC     C28      CTL2    -0.180000       12.0110           0
     16339 MEMB     123      POPC     H8R      HAL2     0.900000E-01   1.00800           0
     16340 MEMB     123      POPC     H8S      HAL2     0.900000E-01   1.00800           0
     16341 MEMB     123      POPC     C29      CEL1    -0.150000       12.0110           0
     16342 MEMB     123      POPC     H91      HEL1     0.150000       1.00800           0
     16343 MEMB     123      POPC     C210     CEL1    -0.150000       12.0110           0
     16344 MEMB     123      POPC     H101     HEL1     0.150000       1.00800           0
     16345 MEMB     123      POPC     C211     CTL2    -0.180000       12.0110           0
     16346 MEMB     123      POPC     H11R     HAL2     0.900000E-01   1.00800           0
     16347 MEMB     123      POPC     H11S     HAL2     0.900000E-01   1.00800           0
     16348 MEMB     123      POPC     C212     CTL2    -0.180000       12.0110           0
     16349 MEMB     123      POPC     H12R     HAL2     0.900000E-01   1.00800           0
     16350 MEMB     123      POPC     H12S     HAL2     0.900000E-01   1.00800           0
     16351 MEMB     123      POPC     C213     CTL2    -0.180000       12.0110           0
     16352 MEMB     123      POPC     H13R     HAL2     0.900000E-01   1.00800           0
     16353 MEMB     123      POPC     H13S     HAL2     0.900000E-01   1.00800           0
     16354 MEMB     123      POPC     C214     CTL2    -0.180000       12.0110           0
     16355 MEMB     123      POPC     H14R     HAL2     0.900000E-01   1.00800           0
     16356 MEMB     123      POPC     H14S     HAL2     0.900000E-01   1.00800           0
     16357 MEMB     123      POPC     C215     CTL2    -0.180000       12.0110           0
     16358 MEMB     123      POPC     H15R     HAL2     0.900000E-01   1.00800           0
     16359 MEMB     123      POPC     H15S     HAL2     0.900000E-01   1.00800           0
     16360 MEMB     123      POPC     C216     CTL2    -0.180000       12.0110           0
     16361 MEMB     123      POPC     H16R     HAL2     0.900000E-01   1.00800           0
     16362 MEMB     123      POPC     H16S     HAL2     0.900000E-01   1.00800           0
     16363 MEMB     123      POPC     C217     CTL2    -0.180000       12.0110           0
     16364 MEMB     123      POPC     H17R     HAL2     0.900000E-01   1.00800           0
     16365 MEMB     123      POPC     H17S     HAL2     0.900000E-01   1.00800           0
     16366 MEMB     123      POPC     C218     CTL3    -0.270000       12.0110           0
     16367 MEMB     123      POPC     H18R     HAL3     0.900000E-01   1.00800           0
     16368 MEMB     123      POPC     H18S     HAL3     0.900000E-01   1.00800           0
     16369 MEMB     123      POPC     H18T     HAL3     0.900000E-01   1.00800           0
     16370 MEMB     123      POPC     C33      CTL2    -0.180000       12.0110           0
     16371 MEMB     123      POPC     H3X      HAL2     0.900000E-01   1.00800           0
     16372 MEMB     123      POPC     H3Y      HAL2     0.900000E-01   1.00800           0
     16373 MEMB     123      POPC     C34      CTL2    -0.180000       12.0110           0
     16374 MEMB     123      POPC     H4X      HAL2     0.900000E-01   1.00800           0
     16375 MEMB     123      POPC     H4Y      HAL2     0.900000E-01   1.00800           0
     16376 MEMB     123      POPC     C35      CTL2    -0.180000       12.0110           0
     16377 MEMB     123      POPC     H5X      HAL2     0.900000E-01   1.00800           0
     16378 MEMB     123      POPC     H5Y      HAL2     0.900000E-01   1.00800           0
     16379 MEMB     123      POPC     C36      CTL2    -0.180000       12.0110           0
     16380 MEMB     123      POPC     H6X      HAL2     0.900000E-01   1.00800           0
     16381 MEMB     123      POPC     H6Y      HAL2     0.900000E-01   1.00800           0
     16382 MEMB     123      POPC     C37      CTL2    -0.180000       12.0110           0
     16383 MEMB     123      POPC     H7X      HAL2     0.900000E-01   1.00800           0
     16384 MEMB     123      POPC     H7Y      HAL2     0.900000E-01   1.00800           0
     16385 MEMB     123      POPC     C38      CTL2    -0.180000       12.0110           0
     16386 MEMB     123      POPC     H8X      HAL2     0.900000E-01   1.00800           0
     16387 MEMB     123      POPC     H8Y      HAL2     0.900000E-01   1.00800           0
     16388 MEMB     123      POPC     C39      CTL2    -0.180000       12.0110           0
     16389 MEMB     123      POPC     H9X      HAL2     0.900000E-01   1.00800           0
     16390 MEMB     123      POPC     H9Y      HAL2     0.900000E-01   1.00800           0
     16391 MEMB     123      POPC     C310     CTL2    -0.180000       12.0110           0
     16392 MEMB     123      POPC     H10X     HAL2     0.900000E-01   1.00800           0
     16393 MEMB     123      POPC     H10Y     HAL2     0.900000E-01   1.00800           0
     16394 MEMB     123      POPC     C311     CTL2    -0.180000       12.0110           0
     16395 MEMB     123      POPC     H11X     HAL2     0.900000E-01   1.00800           0
     16396 MEMB     123      POPC     H11Y     HAL2     0.900000E-01   1.00800           0
     16397 MEMB     123      POPC     C312     CTL2    -0.180000       12.0110           0
     16398 MEMB     123      POPC     H12X     HAL2     0.900000E-01   1.00800           0
     16399 MEMB     123      POPC     H12Y     HAL2     0.900000E-01   1.00800           0
     16400 MEMB     123      POPC     C313     CTL2    -0.180000       12.0110           0
     16401 MEMB     123      POPC     H13X     HAL2     0.900000E-01   1.00800           0
     16402 MEMB     123      POPC     H13Y     HAL2     0.900000E-01   1.00800           0
     16403 MEMB     123      POPC     C314     CTL2    -0.180000       12.0110           0
     16404 MEMB     123      POPC     H14X     HAL2     0.900000E-01   1.00800           0
     16405 MEMB     123      POPC     H14Y     HAL2     0.900000E-01   1.00800           0
     16406 MEMB     123      POPC     C315     CTL2    -0.180000       12.0110           0
     16407 MEMB     123      POPC     H15X     HAL2     0.900000E-01   1.00800           0
     16408 MEMB     123      POPC     H15Y     HAL2     0.900000E-01   1.00800           0
     16409 MEMB     123      POPC     C316     CTL3    -0.270000       12.0110           0
     16410 MEMB     123      POPC     H16X     HAL3     0.900000E-01   1.00800           0
     16411 MEMB     123      POPC     H16Y     HAL3     0.900000E-01   1.00800           0
     16412 MEMB     123      POPC     H16Z     HAL3     0.900000E-01   1.00800           0
     16413 MEMB     124      POPC     N        NTL     -0.600000       14.0070           0
     16414 MEMB     124      POPC     C12      CTL2    -0.100000       12.0110           0
     16415 MEMB     124      POPC     H12A     HL       0.250000       1.00800           0
     16416 MEMB     124      POPC     H12B     HL       0.250000       1.00800           0
     16417 MEMB     124      POPC     C13      CTL5    -0.350000       12.0110           0
     16418 MEMB     124      POPC     H13A     HL       0.250000       1.00800           0
     16419 MEMB     124      POPC     H13B     HL       0.250000       1.00800           0
     16420 MEMB     124      POPC     H13C     HL       0.250000       1.00800           0
     16421 MEMB     124      POPC     C14      CTL5    -0.350000       12.0110           0
     16422 MEMB     124      POPC     H14A     HL       0.250000       1.00800           0
     16423 MEMB     124      POPC     H14B     HL       0.250000       1.00800           0
     16424 MEMB     124      POPC     H14C     HL       0.250000       1.00800           0
     16425 MEMB     124      POPC     C15      CTL5    -0.350000       12.0110           0
     16426 MEMB     124      POPC     H15A     HL       0.250000       1.00800           0
     16427 MEMB     124      POPC     H15B     HL       0.250000       1.00800           0
     16428 MEMB     124      POPC     H15C     HL       0.250000       1.00800           0
     16429 MEMB     124      POPC     C11      CTL2    -0.800000E-01   12.0110           0
     16430 MEMB     124      POPC     H11A     HAL2     0.900000E-01   1.00800           0
     16431 MEMB     124      POPC     H11B     HAL2     0.900000E-01   1.00800           0
     16432 MEMB     124      POPC     P        PL       1.500000       30.9740           0
     16433 MEMB     124      POPC     O13      O2L     -0.780000       15.9994           0
     16434 MEMB     124      POPC     O14      O2L     -0.780000       15.9994           0
     16435 MEMB     124      POPC     O12      OSLP    -0.570000       15.9994           0
     16436 MEMB     124      POPC     O11      OSLP    -0.570000       15.9994           0
     16437 MEMB     124      POPC     C1       CTL2    -0.800000E-01   12.0110           0
     16438 MEMB     124      POPC     HA       HAL2     0.900000E-01   1.00800           0
     16439 MEMB     124      POPC     HB       HAL2     0.900000E-01   1.00800           0
     16440 MEMB     124      POPC     C2       CTL1     0.170000       12.0110           0
     16441 MEMB     124      POPC     HS       HAL1     0.900000E-01   1.00800           0
     16442 MEMB     124      POPC     O21      OSL     -0.490000       15.9994           0
     16443 MEMB     124      POPC     C21      CL       0.900000       12.0110           0
     16444 MEMB     124      POPC     O22      OBL     -0.630000       15.9994           0
     16445 MEMB     124      POPC     C22      CTL2    -0.220000       12.0110           0
     16446 MEMB     124      POPC     H2R      HAL2     0.900000E-01   1.00800           0
     16447 MEMB     124      POPC     H2S      HAL2     0.900000E-01   1.00800           0
     16448 MEMB     124      POPC     C3       CTL2     0.800000E-01   12.0110           0
     16449 MEMB     124      POPC     HX       HAL2     0.900000E-01   1.00800           0
     16450 MEMB     124      POPC     HY       HAL2     0.900000E-01   1.00800           0
     16451 MEMB     124      POPC     O31      OSL     -0.490000       15.9994           0
     16452 MEMB     124      POPC     C31      CL       0.900000       12.0110           0
     16453 MEMB     124      POPC     O32      OBL     -0.630000       15.9994           0
     16454 MEMB     124      POPC     C32      CTL2    -0.220000       12.0110           0
     16455 MEMB     124      POPC     H2X      HAL2     0.900000E-01   1.00800           0
     16456 MEMB     124      POPC     H2Y      HAL2     0.900000E-01   1.00800           0
     16457 MEMB     124      POPC     C23      CTL2    -0.180000       12.0110           0
     16458 MEMB     124      POPC     H3R      HAL2     0.900000E-01   1.00800           0
     16459 MEMB     124      POPC     H3S      HAL2     0.900000E-01   1.00800           0
     16460 MEMB     124      POPC     C24      CTL2    -0.180000       12.0110           0
     16461 MEMB     124      POPC     H4R      HAL2     0.900000E-01   1.00800           0
     16462 MEMB     124      POPC     H4S      HAL2     0.900000E-01   1.00800           0
     16463 MEMB     124      POPC     C25      CTL2    -0.180000       12.0110           0
     16464 MEMB     124      POPC     H5R      HAL2     0.900000E-01   1.00800           0
     16465 MEMB     124      POPC     H5S      HAL2     0.900000E-01   1.00800           0
     16466 MEMB     124      POPC     C26      CTL2    -0.180000       12.0110           0
     16467 MEMB     124      POPC     H6R      HAL2     0.900000E-01   1.00800           0
     16468 MEMB     124      POPC     H6S      HAL2     0.900000E-01   1.00800           0
     16469 MEMB     124      POPC     C27      CTL2    -0.180000       12.0110           0
     16470 MEMB     124      POPC     H7R      HAL2     0.900000E-01   1.00800           0
     16471 MEMB     124      POPC     H7S      HAL2     0.900000E-01   1.00800           0
     16472 MEMB     124      POPC     C28      CTL2    -0.180000       12.0110           0
     16473 MEMB     124      POPC     H8R      HAL2     0.900000E-01   1.00800           0
     16474 MEMB     124      POPC     H8S      HAL2     0.900000E-01   1.00800           0
     16475 MEMB     124      POPC     C29      CEL1    -0.150000       12.0110           0
     16476 MEMB     124      POPC     H91      HEL1     0.150000       1.00800           0
     16477 MEMB     124      POPC     C210     CEL1    -0.150000       12.0110           0
     16478 MEMB     124      POPC     H101     HEL1     0.150000       1.00800           0
     16479 MEMB     124      POPC     C211     CTL2    -0.180000       12.0110           0
     16480 MEMB     124      POPC     H11R     HAL2     0.900000E-01   1.00800           0
     16481 MEMB     124      POPC     H11S     HAL2     0.900000E-01   1.00800           0
     16482 MEMB     124      POPC     C212     CTL2    -0.180000       12.0110           0
     16483 MEMB     124      POPC     H12R     HAL2     0.900000E-01   1.00800           0
     16484 MEMB     124      POPC     H12S     HAL2     0.900000E-01   1.00800           0
     16485 MEMB     124      POPC     C213     CTL2    -0.180000       12.0110           0
     16486 MEMB     124      POPC     H13R     HAL2     0.900000E-01   1.00800           0
     16487 MEMB     124      POPC     H13S     HAL2     0.900000E-01   1.00800           0
     16488 MEMB     124      POPC     C214     CTL2    -0.180000       12.0110           0
     16489 MEMB     124      POPC     H14R     HAL2     0.900000E-01   1.00800           0
     16490 MEMB     124      POPC     H14S     HAL2     0.900000E-01   1.00800           0
     16491 MEMB     124      POPC     C215     CTL2    -0.180000       12.0110           0
     16492 MEMB     124      POPC     H15R     HAL2     0.900000E-01   1.00800           0
     16493 MEMB     124      POPC     H15S     HAL2     0.900000E-01   1.00800           0
     16494 MEMB     124      POPC     C216     CTL2    -0.180000       12.0110           0
     16495 MEMB     124      POPC     H16R     HAL2     0.900000E-01   1.00800           0
     16496 MEMB     124      POPC     H16S     HAL2     0.900000E-01   1.00800           0
     16497 MEMB     124      POPC     C217     CTL2    -0.180000       12.0110           0
     16498 MEMB     124      POPC     H17R     HAL2     0.900000E-01   1.00800           0
     16499 MEMB     124      POPC     H17S     HAL2     0.900000E-01   1.00800           0
     16500 MEMB     124      POPC     C218     CTL3    -0.270000       12.0110           0
     16501 MEMB     124      POPC     H18R     HAL3     0.900000E-01   1.00800           0
     16502 MEMB     124      POPC     H18S     HAL3     0.900000E-01   1.00800           0
     16503 MEMB     124      POPC     H18T     HAL3     0.900000E-01   1.00800           0
     16504 MEMB     124      POPC     C33      CTL2    -0.180000       12.0110           0
     16505 MEMB     124      POPC     H3X      HAL2     0.900000E-01   1.00800           0
     16506 MEMB     124      POPC     H3Y      HAL2     0.900000E-01   1.00800           0
     16507 MEMB     124      POPC     C34      CTL2    -0.180000       12.0110           0
     16508 MEMB     124      POPC     H4X      HAL2     0.900000E-01   1.00800           0
     16509 MEMB     124      POPC     H4Y      HAL2     0.900000E-01   1.00800           0
     16510 MEMB     124      POPC     C35      CTL2    -0.180000       12.0110           0
     16511 MEMB     124      POPC     H5X      HAL2     0.900000E-01   1.00800           0
     16512 MEMB     124      POPC     H5Y      HAL2     0.900000E-01   1.00800           0
     16513 MEMB     124      POPC     C36      CTL2    -0.180000       12.0110           0
     16514 MEMB     124      POPC     H6X      HAL2     0.900000E-01   1.00800           0
     16515 MEMB     124      POPC     H6Y      HAL2     0.900000E-01   1.00800           0
     16516 MEMB     124      POPC     C37      CTL2    -0.180000       12.0110           0
     16517 MEMB     124      POPC     H7X      HAL2     0.900000E-01   1.00800           0
     16518 MEMB     124      POPC     H7Y      HAL2     0.900000E-01   1.00800           0
     16519 MEMB     124      POPC     C38      CTL2    -0.180000       12.0110           0
     16520 MEMB     124      POPC     H8X      HAL2     0.900000E-01   1.00800           0
     16521 MEMB     124      POPC     H8Y      HAL2     0.900000E-01   1.00800           0
     16522 MEMB     124      POPC     C39      CTL2    -0.180000       12.0110           0
     16523 MEMB     124      POPC     H9X      HAL2     0.900000E-01   1.00800           0
     16524 MEMB     124      POPC     H9Y      HAL2     0.900000E-01   1.00800           0
     16525 MEMB     124      POPC     C310     CTL2    -0.180000       12.0110           0
     16526 MEMB     124      POPC     H10X     HAL2     0.900000E-01   1.00800           0
     16527 MEMB     124      POPC     H10Y     HAL2     0.900000E-01   1.00800           0
     16528 MEMB     124      POPC     C311     CTL2    -0.180000       12.0110           0
     16529 MEMB     124      POPC     H11X     HAL2     0.900000E-01   1.00800           0
     16530 MEMB     124      POPC     H11Y     HAL2     0.900000E-01   1.00800           0
     16531 MEMB     124      POPC     C312     CTL2    -0.180000       12.0110           0
     16532 MEMB     124      POPC     H12X     HAL2     0.900000E-01   1.00800           0
     16533 MEMB     124      POPC     H12Y     HAL2     0.900000E-01   1.00800           0
     16534 MEMB     124      POPC     C313     CTL2    -0.180000       12.0110           0
     16535 MEMB     124      POPC     H13X     HAL2     0.900000E-01   1.00800           0
     16536 MEMB     124      POPC     H13Y     HAL2     0.900000E-01   1.00800           0
     16537 MEMB     124      POPC     C314     CTL2    -0.180000       12.0110           0
     16538 MEMB     124      POPC     H14X     HAL2     0.900000E-01   1.00800           0
     16539 MEMB     124      POPC     H14Y     HAL2     0.900000E-01   1.00800           0
     16540 MEMB     124      POPC     C315     CTL2    -0.180000       12.0110           0
     16541 MEMB     124      POPC     H15X     HAL2     0.900000E-01   1.00800           0
     16542 MEMB     124      POPC     H15Y     HAL2     0.900000E-01   1.00800           0
     16543 MEMB     124      POPC     C316     CTL3    -0.270000       12.0110           0
     16544 MEMB     124      POPC     H16X     HAL3     0.900000E-01   1.00800           0
     16545 MEMB     124      POPC     H16Y     HAL3     0.900000E-01   1.00800           0
     16546 MEMB     124      POPC     H16Z     HAL3     0.900000E-01   1.00800           0
     16547 MEMB     125      POPC     N        NTL     -0.600000       14.0070           0
     16548 MEMB     125      POPC     C12      CTL2    -0.100000       12.0110           0
     16549 MEMB     125      POPC     H12A     HL       0.250000       1.00800           0
     16550 MEMB     125      POPC     H12B     HL       0.250000       1.00800           0
     16551 MEMB     125      POPC     C13      CTL5    -0.350000       12.0110           0
     16552 MEMB     125      POPC     H13A     HL       0.250000       1.00800           0
     16553 MEMB     125      POPC     H13B     HL       0.250000       1.00800           0
     16554 MEMB     125      POPC     H13C     HL       0.250000       1.00800           0
     16555 MEMB     125      POPC     C14      CTL5    -0.350000       12.0110           0
     16556 MEMB     125      POPC     H14A     HL       0.250000       1.00800           0
     16557 MEMB     125      POPC     H14B     HL       0.250000       1.00800           0
     16558 MEMB     125      POPC     H14C     HL       0.250000       1.00800           0
     16559 MEMB     125      POPC     C15      CTL5    -0.350000       12.0110           0
     16560 MEMB     125      POPC     H15A     HL       0.250000       1.00800           0
     16561 MEMB     125      POPC     H15B     HL       0.250000       1.00800           0
     16562 MEMB     125      POPC     H15C     HL       0.250000       1.00800           0
     16563 MEMB     125      POPC     C11      CTL2    -0.800000E-01   12.0110           0
     16564 MEMB     125      POPC     H11A     HAL2     0.900000E-01   1.00800           0
     16565 MEMB     125      POPC     H11B     HAL2     0.900000E-01   1.00800           0
     16566 MEMB     125      POPC     P        PL       1.500000       30.9740           0
     16567 MEMB     125      POPC     O13      O2L     -0.780000       15.9994           0
     16568 MEMB     125      POPC     O14      O2L     -0.780000       15.9994           0
     16569 MEMB     125      POPC     O12      OSLP    -0.570000       15.9994           0
     16570 MEMB     125      POPC     O11      OSLP    -0.570000       15.9994           0
     16571 MEMB     125      POPC     C1       CTL2    -0.800000E-01   12.0110           0
     16572 MEMB     125      POPC     HA       HAL2     0.900000E-01   1.00800           0
     16573 MEMB     125      POPC     HB       HAL2     0.900000E-01   1.00800           0
     16574 MEMB     125      POPC     C2       CTL1     0.170000       12.0110           0
     16575 MEMB     125      POPC     HS       HAL1     0.900000E-01   1.00800           0
     16576 MEMB     125      POPC     O21      OSL     -0.490000       15.9994           0
     16577 MEMB     125      POPC     C21      CL       0.900000       12.0110           0
     16578 MEMB     125      POPC     O22      OBL     -0.630000       15.9994           0
     16579 MEMB     125      POPC     C22      CTL2    -0.220000       12.0110           0
     16580 MEMB     125      POPC     H2R      HAL2     0.900000E-01   1.00800           0
     16581 MEMB     125      POPC     H2S      HAL2     0.900000E-01   1.00800           0
     16582 MEMB     125      POPC     C3       CTL2     0.800000E-01   12.0110           0
     16583 MEMB     125      POPC     HX       HAL2     0.900000E-01   1.00800           0
     16584 MEMB     125      POPC     HY       HAL2     0.900000E-01   1.00800           0
     16585 MEMB     125      POPC     O31      OSL     -0.490000       15.9994           0
     16586 MEMB     125      POPC     C31      CL       0.900000       12.0110           0
     16587 MEMB     125      POPC     O32      OBL     -0.630000       15.9994           0
     16588 MEMB     125      POPC     C32      CTL2    -0.220000       12.0110           0
     16589 MEMB     125      POPC     H2X      HAL2     0.900000E-01   1.00800           0
     16590 MEMB     125      POPC     H2Y      HAL2     0.900000E-01   1.00800           0
     16591 MEMB     125      POPC     C23      CTL2    -0.180000       12.0110           0
     16592 MEMB     125      POPC     H3R      HAL2     0.900000E-01   1.00800           0
     16593 MEMB     125      POPC     H3S      HAL2     0.900000E-01   1.00800           0
     16594 MEMB     125      POPC     C24      CTL2    -0.180000       12.0110           0
     16595 MEMB     125      POPC     H4R      HAL2     0.900000E-01   1.00800           0
     16596 MEMB     125      POPC     H4S      HAL2     0.900000E-01   1.00800           0
     16597 MEMB     125      POPC     C25      CTL2    -0.180000       12.0110           0
     16598 MEMB     125      POPC     H5R      HAL2     0.900000E-01   1.00800           0
     16599 MEMB     125      POPC     H5S      HAL2     0.900000E-01   1.00800           0
     16600 MEMB     125      POPC     C26      CTL2    -0.180000       12.0110           0
     16601 MEMB     125      POPC     H6R      HAL2     0.900000E-01   1.00800           0
     16602 MEMB     125      POPC     H6S      HAL2     0.900000E-01   1.00800           0
     16603 MEMB     125      POPC     C27      CTL2    -0.180000       12.0110           0
     16604 MEMB     125      POPC     H7R      HAL2     0.900000E-01   1.00800           0
     16605 MEMB     125      POPC     H7S      HAL2     0.900000E-01   1.00800           0
     16606 MEMB     125      POPC     C28      CTL2    -0.180000       12.0110           0
     16607 MEMB     125      POPC     H8R      HAL2     0.900000E-01   1.00800           0
     16608 MEMB     125      POPC     H8S      HAL2     0.900000E-01   1.00800           0
     16609 MEMB     125      POPC     C29      CEL1    -0.150000       12.0110           0
     16610 MEMB     125      POPC     H91      HEL1     0.150000       1.00800           0
     16611 MEMB     125      POPC     C210     CEL1    -0.150000       12.0110           0
     16612 MEMB     125      POPC     H101     HEL1     0.150000       1.00800           0
     16613 MEMB     125      POPC     C211     CTL2    -0.180000       12.0110           0
     16614 MEMB     125      POPC     H11R     HAL2     0.900000E-01   1.00800           0
     16615 MEMB     125      POPC     H11S     HAL2     0.900000E-01   1.00800           0
     16616 MEMB     125      POPC     C212     CTL2    -0.180000       12.0110           0
     16617 MEMB     125      POPC     H12R     HAL2     0.900000E-01   1.00800           0
     16618 MEMB     125      POPC     H12S     HAL2     0.900000E-01   1.00800           0
     16619 MEMB     125      POPC     C213     CTL2    -0.180000       12.0110           0
     16620 MEMB     125      POPC     H13R     HAL2     0.900000E-01   1.00800           0
     16621 MEMB     125      POPC     H13S     HAL2     0.900000E-01   1.00800           0
     16622 MEMB     125      POPC     C214     CTL2    -0.180000       12.0110           0
     16623 MEMB     125      POPC     H14R     HAL2     0.900000E-01   1.00800           0
     16624 MEMB     125      POPC     H14S     HAL2     0.900000E-01   1.00800           0
     16625 MEMB     125      POPC     C215     CTL2    -0.180000       12.0110           0
     16626 MEMB     125      POPC     H15R     HAL2     0.900000E-01   1.00800           0
     16627 MEMB     125      POPC     H15S     HAL2     0.900000E-01   1.00800           0
     16628 MEMB     125      POPC     C216     CTL2    -0.180000       12.0110           0
     16629 MEMB     125      POPC     H16R     HAL2     0.900000E-01   1.00800           0
     16630 MEMB     125      POPC     H16S     HAL2     0.900000E-01   1.00800           0
     16631 MEMB     125      POPC     C217     CTL2    -0.180000       12.0110           0
     16632 MEMB     125      POPC     H17R     HAL2     0.900000E-01   1.00800           0
     16633 MEMB     125      POPC     H17S     HAL2     0.900000E-01   1.00800           0
     16634 MEMB     125      POPC     C218     CTL3    -0.270000       12.0110           0
     16635 MEMB     125      POPC     H18R     HAL3     0.900000E-01   1.00800           0
     16636 MEMB     125      POPC     H18S     HAL3     0.900000E-01   1.00800           0
     16637 MEMB     125      POPC     H18T     HAL3     0.900000E-01   1.00800           0
     16638 MEMB     125      POPC     C33      CTL2    -0.180000       12.0110           0
     16639 MEMB     125      POPC     H3X      HAL2     0.900000E-01   1.00800           0
     16640 MEMB     125      POPC     H3Y      HAL2     0.900000E-01   1.00800           0
     16641 MEMB     125      POPC     C34      CTL2    -0.180000       12.0110           0
     16642 MEMB     125      POPC     H4X      HAL2     0.900000E-01   1.00800           0
     16643 MEMB     125      POPC     H4Y      HAL2     0.900000E-01   1.00800           0
     16644 MEMB     125      POPC     C35      CTL2    -0.180000       12.0110           0
     16645 MEMB     125      POPC     H5X      HAL2     0.900000E-01   1.00800           0
     16646 MEMB     125      POPC     H5Y      HAL2     0.900000E-01   1.00800           0
     16647 MEMB     125      POPC     C36      CTL2    -0.180000       12.0110           0
     16648 MEMB     125      POPC     H6X      HAL2     0.900000E-01   1.00800           0
     16649 MEMB     125      POPC     H6Y      HAL2     0.900000E-01   1.00800           0
     16650 MEMB     125      POPC     C37      CTL2    -0.180000       12.0110           0
     16651 MEMB     125      POPC     H7X      HAL2     0.900000E-01   1.00800           0
     16652 MEMB     125      POPC     H7Y      HAL2     0.900000E-01   1.00800           0
     16653 MEMB     125      POPC     C38      CTL2    -0.180000       12.0110           0
     16654 MEMB     125      POPC     H8X      HAL2     0.900000E-01   1.00800           0
     16655 MEMB     125      POPC     H8Y      HAL2     0.900000E-01   1.00800           0
     16656 MEMB     125      POPC     C39      CTL2    -0.180000       12.0110           0
     16657 MEMB     125      POPC     H9X      HAL2     0.900000E-01   1.00800           0
     16658 MEMB     125      POPC     H9Y      HAL2     0.900000E-01   1.00800           0
     16659 MEMB     125      POPC     C310     CTL2    -0.180000       12.0110           0
     16660 MEMB     125      POPC     H10X     HAL2     0.900000E-01   1.00800           0
     16661 MEMB     125      POPC     H10Y     HAL2     0.900000E-01   1.00800           0
     16662 MEMB     125      POPC     C311     CTL2    -0.180000       12.0110           0
     16663 MEMB     125      POPC     H11X     HAL2     0.900000E-01   1.00800           0
     16664 MEMB     125      POPC     H11Y     HAL2     0.900000E-01   1.00800           0
     16665 MEMB     125      POPC     C312     CTL2    -0.180000       12.0110           0
     16666 MEMB     125      POPC     H12X     HAL2     0.900000E-01   1.00800           0
     16667 MEMB     125      POPC     H12Y     HAL2     0.900000E-01   1.00800           0
     16668 MEMB     125      POPC     C313     CTL2    -0.180000       12.0110           0
     16669 MEMB     125      POPC     H13X     HAL2     0.900000E-01   1.00800           0
     16670 MEMB     125      POPC     H13Y     HAL2     0.900000E-01   1.00800           0
     16671 MEMB     125      POPC     C314     CTL2    -0.180000       12.0110           0
     16672 MEMB     125      POPC     H14X     HAL2     0.900000E-01   1.00800           0
     16673 MEMB     125      POPC     H14Y     HAL2     0.900000E-01   1.00800           0
     16674 MEMB     125      POPC     C315     CTL2    -0.180000       12.0110           0
     16675 MEMB     125      POPC     H15X     HAL2     0.900000E-01   1.00800           0
     16676 MEMB     125      POPC     H15Y     HAL2     0.900000E-01   1.00800           0
     16677 MEMB     125      POPC     C316     CTL3    -0.270000       12.0110           0
     16678 MEMB     125      POPC     H16X     HAL3     0.900000E-01   1.00800           0
     16679 MEMB     125      POPC     H16Y     HAL3     0.900000E-01   1.00800           0
     16680 MEMB     125      POPC     H16Z     HAL3     0.900000E-01   1.00800           0
     16681 MEMB     126      POPC     N        NTL     -0.600000       14.0070           0
     16682 MEMB     126      POPC     C12      CTL2    -0.100000       12.0110           0
     16683 MEMB     126      POPC     H12A     HL       0.250000       1.00800           0
     16684 MEMB     126      POPC     H12B     HL       0.250000       1.00800           0
     16685 MEMB     126      POPC     C13      CTL5    -0.350000       12.0110           0
     16686 MEMB     126      POPC     H13A     HL       0.250000       1.00800           0
     16687 MEMB     126      POPC     H13B     HL       0.250000       1.00800           0
     16688 MEMB     126      POPC     H13C     HL       0.250000       1.00800           0
     16689 MEMB     126      POPC     C14      CTL5    -0.350000       12.0110           0
     16690 MEMB     126      POPC     H14A     HL       0.250000       1.00800           0
     16691 MEMB     126      POPC     H14B     HL       0.250000       1.00800           0
     16692 MEMB     126      POPC     H14C     HL       0.250000       1.00800           0
     16693 MEMB     126      POPC     C15      CTL5    -0.350000       12.0110           0
     16694 MEMB     126      POPC     H15A     HL       0.250000       1.00800           0
     16695 MEMB     126      POPC     H15B     HL       0.250000       1.00800           0
     16696 MEMB     126      POPC     H15C     HL       0.250000       1.00800           0
     16697 MEMB     126      POPC     C11      CTL2    -0.800000E-01   12.0110           0
     16698 MEMB     126      POPC     H11A     HAL2     0.900000E-01   1.00800           0
     16699 MEMB     126      POPC     H11B     HAL2     0.900000E-01   1.00800           0
     16700 MEMB     126      POPC     P        PL       1.500000       30.9740           0
     16701 MEMB     126      POPC     O13      O2L     -0.780000       15.9994           0
     16702 MEMB     126      POPC     O14      O2L     -0.780000       15.9994           0
     16703 MEMB     126      POPC     O12      OSLP    -0.570000       15.9994           0
     16704 MEMB     126      POPC     O11      OSLP    -0.570000       15.9994           0
     16705 MEMB     126      POPC     C1       CTL2    -0.800000E-01   12.0110           0
     16706 MEMB     126      POPC     HA       HAL2     0.900000E-01   1.00800           0
     16707 MEMB     126      POPC     HB       HAL2     0.900000E-01   1.00800           0
     16708 MEMB     126      POPC     C2       CTL1     0.170000       12.0110           0
     16709 MEMB     126      POPC     HS       HAL1     0.900000E-01   1.00800           0
     16710 MEMB     126      POPC     O21      OSL     -0.490000       15.9994           0
     16711 MEMB     126      POPC     C21      CL       0.900000       12.0110           0
     16712 MEMB     126      POPC     O22      OBL     -0.630000       15.9994           0
     16713 MEMB     126      POPC     C22      CTL2    -0.220000       12.0110           0
     16714 MEMB     126      POPC     H2R      HAL2     0.900000E-01   1.00800           0
     16715 MEMB     126      POPC     H2S      HAL2     0.900000E-01   1.00800           0
     16716 MEMB     126      POPC     C3       CTL2     0.800000E-01   12.0110           0
     16717 MEMB     126      POPC     HX       HAL2     0.900000E-01   1.00800           0
     16718 MEMB     126      POPC     HY       HAL2     0.900000E-01   1.00800           0
     16719 MEMB     126      POPC     O31      OSL     -0.490000       15.9994           0
     16720 MEMB     126      POPC     C31      CL       0.900000       12.0110           0
     16721 MEMB     126      POPC     O32      OBL     -0.630000       15.9994           0
     16722 MEMB     126      POPC     C32      CTL2    -0.220000       12.0110           0
     16723 MEMB     126      POPC     H2X      HAL2     0.900000E-01   1.00800           0
     16724 MEMB     126      POPC     H2Y      HAL2     0.900000E-01   1.00800           0
     16725 MEMB     126      POPC     C23      CTL2    -0.180000       12.0110           0
     16726 MEMB     126      POPC     H3R      HAL2     0.900000E-01   1.00800           0
     16727 MEMB     126      POPC     H3S      HAL2     0.900000E-01   1.00800           0
     16728 MEMB     126      POPC     C24      CTL2    -0.180000       12.0110           0
     16729 MEMB     126      POPC     H4R      HAL2     0.900000E-01   1.00800           0
     16730 MEMB     126      POPC     H4S      HAL2     0.900000E-01   1.00800           0
     16731 MEMB     126      POPC     C25      CTL2    -0.180000       12.0110           0
     16732 MEMB     126      POPC     H5R      HAL2     0.900000E-01   1.00800           0
     16733 MEMB     126      POPC     H5S      HAL2     0.900000E-01   1.00800           0
     16734 MEMB     126      POPC     C26      CTL2    -0.180000       12.0110           0
     16735 MEMB     126      POPC     H6R      HAL2     0.900000E-01   1.00800           0
     16736 MEMB     126      POPC     H6S      HAL2     0.900000E-01   1.00800           0
     16737 MEMB     126      POPC     C27      CTL2    -0.180000       12.0110           0
     16738 MEMB     126      POPC     H7R      HAL2     0.900000E-01   1.00800           0
     16739 MEMB     126      POPC     H7S      HAL2     0.900000E-01   1.00800           0
     16740 MEMB     126      POPC     C28      CTL2    -0.180000       12.0110           0
     16741 MEMB     126      POPC     H8R      HAL2     0.900000E-01   1.00800           0
     16742 MEMB     126      POPC     H8S      HAL2     0.900000E-01   1.00800           0
     16743 MEMB     126      POPC     C29      CEL1    -0.150000       12.0110           0
     16744 MEMB     126      POPC     H91      HEL1     0.150000       1.00800           0
     16745 MEMB     126      POPC     C210     CEL1    -0.150000       12.0110           0
     16746 MEMB     126      POPC     H101     HEL1     0.150000       1.00800           0
     16747 MEMB     126      POPC     C211     CTL2    -0.180000       12.0110           0
     16748 MEMB     126      POPC     H11R     HAL2     0.900000E-01   1.00800           0
     16749 MEMB     126      POPC     H11S     HAL2     0.900000E-01   1.00800           0
     16750 MEMB     126      POPC     C212     CTL2    -0.180000       12.0110           0
     16751 MEMB     126      POPC     H12R     HAL2     0.900000E-01   1.00800           0
     16752 MEMB     126      POPC     H12S     HAL2     0.900000E-01   1.00800           0
     16753 MEMB     126      POPC     C213     CTL2    -0.180000       12.0110           0
     16754 MEMB     126      POPC     H13R     HAL2     0.900000E-01   1.00800           0
     16755 MEMB     126      POPC     H13S     HAL2     0.900000E-01   1.00800           0
     16756 MEMB     126      POPC     C214     CTL2    -0.180000       12.0110           0
     16757 MEMB     126      POPC     H14R     HAL2     0.900000E-01   1.00800           0
     16758 MEMB     126      POPC     H14S     HAL2     0.900000E-01   1.00800           0
     16759 MEMB     126      POPC     C215     CTL2    -0.180000       12.0110           0
     16760 MEMB     126      POPC     H15R     HAL2     0.900000E-01   1.00800           0
     16761 MEMB     126      POPC     H15S     HAL2     0.900000E-01   1.00800           0
     16762 MEMB     126      POPC     C216     CTL2    -0.180000       12.0110           0
     16763 MEMB     126      POPC     H16R     HAL2     0.900000E-01   1.00800           0
     16764 MEMB     126      POPC     H16S     HAL2     0.900000E-01   1.00800           0
     16765 MEMB     126      POPC     C217     CTL2    -0.180000       12.0110           0
     16766 MEMB     126      POPC     H17R     HAL2     0.900000E-01   1.00800           0
     16767 MEMB     126      POPC     H17S     HAL2     0.900000E-01   1.00800           0
     16768 MEMB     126      POPC     C218     CTL3    -0.270000       12.0110           0
     16769 MEMB     126      POPC     H18R     HAL3     0.900000E-01   1.00800           0
     16770 MEMB     126      POPC     H18S     HAL3     0.900000E-01   1.00800           0
     16771 MEMB     126      POPC     H18T     HAL3     0.900000E-01   1.00800           0
     16772 MEMB     126      POPC     C33      CTL2    -0.180000       12.0110           0
     16773 MEMB     126      POPC     H3X      HAL2     0.900000E-01   1.00800           0
     16774 MEMB     126      POPC     H3Y      HAL2     0.900000E-01   1.00800           0
     16775 MEMB     126      POPC     C34      CTL2    -0.180000       12.0110           0
     16776 MEMB     126      POPC     H4X      HAL2     0.900000E-01   1.00800           0
     16777 MEMB     126      POPC     H4Y      HAL2     0.900000E-01   1.00800           0
     16778 MEMB     126      POPC     C35      CTL2    -0.180000       12.0110           0
     16779 MEMB     126      POPC     H5X      HAL2     0.900000E-01   1.00800           0
     16780 MEMB     126      POPC     H5Y      HAL2     0.900000E-01   1.00800           0
     16781 MEMB     126      POPC     C36      CTL2    -0.180000       12.0110           0
     16782 MEMB     126      POPC     H6X      HAL2     0.900000E-01   1.00800           0
     16783 MEMB     126      POPC     H6Y      HAL2     0.900000E-01   1.00800           0
     16784 MEMB     126      POPC     C37      CTL2    -0.180000       12.0110           0
     16785 MEMB     126      POPC     H7X      HAL2     0.900000E-01   1.00800           0
     16786 MEMB     126      POPC     H7Y      HAL2     0.900000E-01   1.00800           0
     16787 MEMB     126      POPC     C38      CTL2    -0.180000       12.0110           0
     16788 MEMB     126      POPC     H8X      HAL2     0.900000E-01   1.00800           0
     16789 MEMB     126      POPC     H8Y      HAL2     0.900000E-01   1.00800           0
     16790 MEMB     126      POPC     C39      CTL2    -0.180000       12.0110           0
     16791 MEMB     126      POPC     H9X      HAL2     0.900000E-01   1.00800           0
     16792 MEMB     126      POPC     H9Y      HAL2     0.900000E-01   1.00800           0
     16793 MEMB     126      POPC     C310     CTL2    -0.180000       12.0110           0
     16794 MEMB     126      POPC     H10X     HAL2     0.900000E-01   1.00800           0
     16795 MEMB     126      POPC     H10Y     HAL2     0.900000E-01   1.00800           0
     16796 MEMB     126      POPC     C311     CTL2    -0.180000       12.0110           0
     16797 MEMB     126      POPC     H11X     HAL2     0.900000E-01   1.00800           0
     16798 MEMB     126      POPC     H11Y     HAL2     0.900000E-01   1.00800           0
     16799 MEMB     126      POPC     C312     CTL2    -0.180000       12.0110           0
     16800 MEMB     126      POPC     H12X     HAL2     0.900000E-01   1.00800           0
     16801 MEMB     126      POPC     H12Y     HAL2     0.900000E-01   1.00800           0
     16802 MEMB     126      POPC     C313     CTL2    -0.180000       12.0110           0
     16803 MEMB     126      POPC     H13X     HAL2     0.900000E-01   1.00800           0
     16804 MEMB     126      POPC     H13Y     HAL2     0.900000E-01   1.00800           0
     16805 MEMB     126      POPC     C314     CTL2    -0.180000       12.0110           0
     16806 MEMB     126      POPC     H14X     HAL2     0.900000E-01   1.00800           0
     16807 MEMB     126      POPC     H14Y     HAL2     0.900000E-01   1.00800           0
     16808 MEMB     126      POPC     C315     CTL2    -0.180000       12.0110           0
     16809 MEMB     126      POPC     H15X     HAL2     0.900000E-01   1.00800           0
     16810 MEMB     126      POPC     H15Y     HAL2     0.900000E-01   1.00800           0
     16811 MEMB     126      POPC     C316     CTL3    -0.270000       12.0110           0
     16812 MEMB     126      POPC     H16X     HAL3     0.900000E-01   1.00800           0
     16813 MEMB     126      POPC     H16Y     HAL3     0.900000E-01   1.00800           0
     16814 MEMB     126      POPC     H16Z     HAL3     0.900000E-01   1.00800           0
     16815 MEMB     127      POPC     N        NTL     -0.600000       14.0070           0
     16816 MEMB     127      POPC     C12      CTL2    -0.100000       12.0110           0
     16817 MEMB     127      POPC     H12A     HL       0.250000       1.00800           0
     16818 MEMB     127      POPC     H12B     HL       0.250000       1.00800           0
     16819 MEMB     127      POPC     C13      CTL5    -0.350000       12.0110           0
     16820 MEMB     127      POPC     H13A     HL       0.250000       1.00800           0
     16821 MEMB     127      POPC     H13B     HL       0.250000       1.00800           0
     16822 MEMB     127      POPC     H13C     HL       0.250000       1.00800           0
     16823 MEMB     127      POPC     C14      CTL5    -0.350000       12.0110           0
     16824 MEMB     127      POPC     H14A     HL       0.250000       1.00800           0
     16825 MEMB     127      POPC     H14B     HL       0.250000       1.00800           0
     16826 MEMB     127      POPC     H14C     HL       0.250000       1.00800           0
     16827 MEMB     127      POPC     C15      CTL5    -0.350000       12.0110           0
     16828 MEMB     127      POPC     H15A     HL       0.250000       1.00800           0
     16829 MEMB     127      POPC     H15B     HL       0.250000       1.00800           0
     16830 MEMB     127      POPC     H15C     HL       0.250000       1.00800           0
     16831 MEMB     127      POPC     C11      CTL2    -0.800000E-01   12.0110           0
     16832 MEMB     127      POPC     H11A     HAL2     0.900000E-01   1.00800           0
     16833 MEMB     127      POPC     H11B     HAL2     0.900000E-01   1.00800           0
     16834 MEMB     127      POPC     P        PL       1.500000       30.9740           0
     16835 MEMB     127      POPC     O13      O2L     -0.780000       15.9994           0
     16836 MEMB     127      POPC     O14      O2L     -0.780000       15.9994           0
     16837 MEMB     127      POPC     O12      OSLP    -0.570000       15.9994           0
     16838 MEMB     127      POPC     O11      OSLP    -0.570000       15.9994           0
     16839 MEMB     127      POPC     C1       CTL2    -0.800000E-01   12.0110           0
     16840 MEMB     127      POPC     HA       HAL2     0.900000E-01   1.00800           0
     16841 MEMB     127      POPC     HB       HAL2     0.900000E-01   1.00800           0
     16842 MEMB     127      POPC     C2       CTL1     0.170000       12.0110           0
     16843 MEMB     127      POPC     HS       HAL1     0.900000E-01   1.00800           0
     16844 MEMB     127      POPC     O21      OSL     -0.490000       15.9994           0
     16845 MEMB     127      POPC     C21      CL       0.900000       12.0110           0
     16846 MEMB     127      POPC     O22      OBL     -0.630000       15.9994           0
     16847 MEMB     127      POPC     C22      CTL2    -0.220000       12.0110           0
     16848 MEMB     127      POPC     H2R      HAL2     0.900000E-01   1.00800           0
     16849 MEMB     127      POPC     H2S      HAL2     0.900000E-01   1.00800           0
     16850 MEMB     127      POPC     C3       CTL2     0.800000E-01   12.0110           0
     16851 MEMB     127      POPC     HX       HAL2     0.900000E-01   1.00800           0
     16852 MEMB     127      POPC     HY       HAL2     0.900000E-01   1.00800           0
     16853 MEMB     127      POPC     O31      OSL     -0.490000       15.9994           0
     16854 MEMB     127      POPC     C31      CL       0.900000       12.0110           0
     16855 MEMB     127      POPC     O32      OBL     -0.630000       15.9994           0
     16856 MEMB     127      POPC     C32      CTL2    -0.220000       12.0110           0
     16857 MEMB     127      POPC     H2X      HAL2     0.900000E-01   1.00800           0
     16858 MEMB     127      POPC     H2Y      HAL2     0.900000E-01   1.00800           0
     16859 MEMB     127      POPC     C23      CTL2    -0.180000       12.0110           0
     16860 MEMB     127      POPC     H3R      HAL2     0.900000E-01   1.00800           0
     16861 MEMB     127      POPC     H3S      HAL2     0.900000E-01   1.00800           0
     16862 MEMB     127      POPC     C24      CTL2    -0.180000       12.0110           0
     16863 MEMB     127      POPC     H4R      HAL2     0.900000E-01   1.00800           0
     16864 MEMB     127      POPC     H4S      HAL2     0.900000E-01   1.00800           0
     16865 MEMB     127      POPC     C25      CTL2    -0.180000       12.0110           0
     16866 MEMB     127      POPC     H5R      HAL2     0.900000E-01   1.00800           0
     16867 MEMB     127      POPC     H5S      HAL2     0.900000E-01   1.00800           0
     16868 MEMB     127      POPC     C26      CTL2    -0.180000       12.0110           0
     16869 MEMB     127      POPC     H6R      HAL2     0.900000E-01   1.00800           0
     16870 MEMB     127      POPC     H6S      HAL2     0.900000E-01   1.00800           0
     16871 MEMB     127      POPC     C27      CTL2    -0.180000       12.0110           0
     16872 MEMB     127      POPC     H7R      HAL2     0.900000E-01   1.00800           0
     16873 MEMB     127      POPC     H7S      HAL2     0.900000E-01   1.00800           0
     16874 MEMB     127      POPC     C28      CTL2    -0.180000       12.0110           0
     16875 MEMB     127      POPC     H8R      HAL2     0.900000E-01   1.00800           0
     16876 MEMB     127      POPC     H8S      HAL2     0.900000E-01   1.00800           0
     16877 MEMB     127      POPC     C29      CEL1    -0.150000       12.0110           0
     16878 MEMB     127      POPC     H91      HEL1     0.150000       1.00800           0
     16879 MEMB     127      POPC     C210     CEL1    -0.150000       12.0110           0
     16880 MEMB     127      POPC     H101     HEL1     0.150000       1.00800           0
     16881 MEMB     127      POPC     C211     CTL2    -0.180000       12.0110           0
     16882 MEMB     127      POPC     H11R     HAL2     0.900000E-01   1.00800           0
     16883 MEMB     127      POPC     H11S     HAL2     0.900000E-01   1.00800           0
     16884 MEMB     127      POPC     C212     CTL2    -0.180000       12.0110           0
     16885 MEMB     127      POPC     H12R     HAL2     0.900000E-01   1.00800           0
     16886 MEMB     127      POPC     H12S     HAL2     0.900000E-01   1.00800           0
     16887 MEMB     127      POPC     C213     CTL2    -0.180000       12.0110           0
     16888 MEMB     127      POPC     H13R     HAL2     0.900000E-01   1.00800           0
     16889 MEMB     127      POPC     H13S     HAL2     0.900000E-01   1.00800           0
     16890 MEMB     127      POPC     C214     CTL2    -0.180000       12.0110           0
     16891 MEMB     127      POPC     H14R     HAL2     0.900000E-01   1.00800           0
     16892 MEMB     127      POPC     H14S     HAL2     0.900000E-01   1.00800           0
     16893 MEMB     127      POPC     C215     CTL2    -0.180000       12.0110           0
     16894 MEMB     127      POPC     H15R     HAL2     0.900000E-01   1.00800           0
     16895 MEMB     127      POPC     H15S     HAL2     0.900000E-01   1.00800           0
     16896 MEMB     127      POPC     C216     CTL2    -0.180000       12.0110           0
     16897 MEMB     127      POPC     H16R     HAL2     0.900000E-01   1.00800           0
     16898 MEMB     127      POPC     H16S     HAL2     0.900000E-01   1.00800           0
     16899 MEMB     127      POPC     C217     CTL2    -0.180000       12.0110           0
     16900 MEMB     127      POPC     H17R     HAL2     0.900000E-01   1.00800           0
     16901 MEMB     127      POPC     H17S     HAL2     0.900000E-01   1.00800           0
     16902 MEMB     127      POPC     C218     CTL3    -0.270000       12.0110           0
     16903 MEMB     127      POPC     H18R     HAL3     0.900000E-01   1.00800           0
     16904 MEMB     127      POPC     H18S     HAL3     0.900000E-01   1.00800           0
     16905 MEMB     127      POPC     H18T     HAL3     0.900000E-01   1.00800           0
     16906 MEMB     127      POPC     C33      CTL2    -0.180000       12.0110           0
     16907 MEMB     127      POPC     H3X      HAL2     0.900000E-01   1.00800           0
     16908 MEMB     127      POPC     H3Y      HAL2     0.900000E-01   1.00800           0
     16909 MEMB     127      POPC     C34      CTL2    -0.180000       12.0110           0
     16910 MEMB     127      POPC     H4X      HAL2     0.900000E-01   1.00800           0
     16911 MEMB     127      POPC     H4Y      HAL2     0.900000E-01   1.00800           0
     16912 MEMB     127      POPC     C35      CTL2    -0.180000       12.0110           0
     16913 MEMB     127      POPC     H5X      HAL2     0.900000E-01   1.00800           0
     16914 MEMB     127      POPC     H5Y      HAL2     0.900000E-01   1.00800           0
     16915 MEMB     127      POPC     C36      CTL2    -0.180000       12.0110           0
     16916 MEMB     127      POPC     H6X      HAL2     0.900000E-01   1.00800           0
     16917 MEMB     127      POPC     H6Y      HAL2     0.900000E-01   1.00800           0
     16918 MEMB     127      POPC     C37      CTL2    -0.180000       12.0110           0
     16919 MEMB     127      POPC     H7X      HAL2     0.900000E-01   1.00800           0
     16920 MEMB     127      POPC     H7Y      HAL2     0.900000E-01   1.00800           0
     16921 MEMB     127      POPC     C38      CTL2    -0.180000       12.0110           0
     16922 MEMB     127      POPC     H8X      HAL2     0.900000E-01   1.00800           0
     16923 MEMB     127      POPC     H8Y      HAL2     0.900000E-01   1.00800           0
     16924 MEMB     127      POPC     C39      CTL2    -0.180000       12.0110           0
     16925 MEMB     127      POPC     H9X      HAL2     0.900000E-01   1.00800           0
     16926 MEMB     127      POPC     H9Y      HAL2     0.900000E-01   1.00800           0
     16927 MEMB     127      POPC     C310     CTL2    -0.180000       12.0110           0
     16928 MEMB     127      POPC     H10X     HAL2     0.900000E-01   1.00800           0
     16929 MEMB     127      POPC     H10Y     HAL2     0.900000E-01   1.00800           0
     16930 MEMB     127      POPC     C311     CTL2    -0.180000       12.0110           0
     16931 MEMB     127      POPC     H11X     HAL2     0.900000E-01   1.00800           0
     16932 MEMB     127      POPC     H11Y     HAL2     0.900000E-01   1.00800           0
     16933 MEMB     127      POPC     C312     CTL2    -0.180000       12.0110           0
     16934 MEMB     127      POPC     H12X     HAL2     0.900000E-01   1.00800           0
     16935 MEMB     127      POPC     H12Y     HAL2     0.900000E-01   1.00800           0
     16936 MEMB     127      POPC     C313     CTL2    -0.180000       12.0110           0
     16937 MEMB     127      POPC     H13X     HAL2     0.900000E-01   1.00800           0
     16938 MEMB     127      POPC     H13Y     HAL2     0.900000E-01   1.00800           0
     16939 MEMB     127      POPC     C314     CTL2    -0.180000       12.0110           0
     16940 MEMB     127      POPC     H14X     HAL2     0.900000E-01   1.00800           0
     16941 MEMB     127      POPC     H14Y     HAL2     0.900000E-01   1.00800           0
     16942 MEMB     127      POPC     C315     CTL2    -0.180000       12.0110           0
     16943 MEMB     127      POPC     H15X     HAL2     0.900000E-01   1.00800           0
     16944 MEMB     127      POPC     H15Y     HAL2     0.900000E-01   1.00800           0
     16945 MEMB     127      POPC     C316     CTL3    -0.270000       12.0110           0
     16946 MEMB     127      POPC     H16X     HAL3     0.900000E-01   1.00800           0
     16947 MEMB     127      POPC     H16Y     HAL3     0.900000E-01   1.00800           0
     16948 MEMB     127      POPC     H16Z     HAL3     0.900000E-01   1.00800           0
     16949 MEMB     128      POPC     N        NTL     -0.600000       14.0070           0
     16950 MEMB     128      POPC     C12      CTL2    -0.100000       12.0110           0
     16951 MEMB     128      POPC     H12A     HL       0.250000       1.00800           0
     16952 MEMB     128      POPC     H12B     HL       0.250000       1.00800           0
     16953 MEMB     128      POPC     C13      CTL5    -0.350000       12.0110           0
     16954 MEMB     128      POPC     H13A     HL       0.250000       1.00800           0
     16955 MEMB     128      POPC     H13B     HL       0.250000       1.00800           0
     16956 MEMB     128      POPC     H13C     HL       0.250000       1.00800           0
     16957 MEMB     128      POPC     C14      CTL5    -0.350000       12.0110           0
     16958 MEMB     128      POPC     H14A     HL       0.250000       1.00800           0
     16959 MEMB     128      POPC     H14B     HL       0.250000       1.00800           0
     16960 MEMB     128      POPC     H14C     HL       0.250000       1.00800           0
     16961 MEMB     128      POPC     C15      CTL5    -0.350000       12.0110           0
     16962 MEMB     128      POPC     H15A     HL       0.250000       1.00800           0
     16963 MEMB     128      POPC     H15B     HL       0.250000       1.00800           0
     16964 MEMB     128      POPC     H15C     HL       0.250000       1.00800           0
     16965 MEMB     128      POPC     C11      CTL2    -0.800000E-01   12.0110           0
     16966 MEMB     128      POPC     H11A     HAL2     0.900000E-01   1.00800           0
     16967 MEMB     128      POPC     H11B     HAL2     0.900000E-01   1.00800           0
     16968 MEMB     128      POPC     P        PL       1.500000       30.9740           0
     16969 MEMB     128      POPC     O13      O2L     -0.780000       15.9994           0
     16970 MEMB     128      POPC     O14      O2L     -0.780000       15.9994           0
     16971 MEMB     128      POPC     O12      OSLP    -0.570000       15.9994           0
     16972 MEMB     128      POPC     O11      OSLP    -0.570000       15.9994           0
     16973 MEMB     128      POPC     C1       CTL2    -0.800000E-01   12.0110           0
     16974 MEMB     128      POPC     HA       HAL2     0.900000E-01   1.00800           0
     16975 MEMB     128      POPC     HB       HAL2     0.900000E-01   1.00800           0
     16976 MEMB     128      POPC     C2       CTL1     0.170000       12.0110           0
     16977 MEMB     128      POPC     HS       HAL1     0.900000E-01   1.00800           0
     16978 MEMB     128      POPC     O21      OSL     -0.490000       15.9994           0
     16979 MEMB     128      POPC     C21      CL       0.900000       12.0110           0
     16980 MEMB     128      POPC     O22      OBL     -0.630000       15.9994           0
     16981 MEMB     128      POPC     C22      CTL2    -0.220000       12.0110           0
     16982 MEMB     128      POPC     H2R      HAL2     0.900000E-01   1.00800           0
     16983 MEMB     128      POPC     H2S      HAL2     0.900000E-01   1.00800           0
     16984 MEMB     128      POPC     C3       CTL2     0.800000E-01   12.0110           0
     16985 MEMB     128      POPC     HX       HAL2     0.900000E-01   1.00800           0
     16986 MEMB     128      POPC     HY       HAL2     0.900000E-01   1.00800           0
     16987 MEMB     128      POPC     O31      OSL     -0.490000       15.9994           0
     16988 MEMB     128      POPC     C31      CL       0.900000       12.0110           0
     16989 MEMB     128      POPC     O32      OBL     -0.630000       15.9994           0
     16990 MEMB     128      POPC     C32      CTL2    -0.220000       12.0110           0
     16991 MEMB     128      POPC     H2X      HAL2     0.900000E-01   1.00800           0
     16992 MEMB     128      POPC     H2Y      HAL2     0.900000E-01   1.00800           0
     16993 MEMB     128      POPC     C23      CTL2    -0.180000       12.0110           0
     16994 MEMB     128      POPC     H3R      HAL2     0.900000E-01   1.00800           0
     16995 MEMB     128      POPC     H3S      HAL2     0.900000E-01   1.00800           0
     16996 MEMB     128      POPC     C24      CTL2    -0.180000       12.0110           0
     16997 MEMB     128      POPC     H4R      HAL2     0.900000E-01   1.00800           0
     16998 MEMB     128      POPC     H4S      HAL2     0.900000E-01   1.00800           0
     16999 MEMB     128      POPC     C25      CTL2    -0.180000       12.0110           0
     17000 MEMB     128      POPC     H5R      HAL2     0.900000E-01   1.00800           0
     17001 MEMB     128      POPC     H5S      HAL2     0.900000E-01   1.00800           0
     17002 MEMB     128      POPC     C26      CTL2    -0.180000       12.0110           0
     17003 MEMB     128      POPC     H6R      HAL2     0.900000E-01   1.00800           0
     17004 MEMB     128      POPC     H6S      HAL2     0.900000E-01   1.00800           0
     17005 MEMB     128      POPC     C27      CTL2    -0.180000       12.0110           0
     17006 MEMB     128      POPC     H7R      HAL2     0.900000E-01   1.00800           0
     17007 MEMB     128      POPC     H7S      HAL2     0.900000E-01   1.00800           0
     17008 MEMB     128      POPC     C28      CTL2    -0.180000       12.0110           0
     17009 MEMB     128      POPC     H8R      HAL2     0.900000E-01   1.00800           0
     17010 MEMB     128      POPC     H8S      HAL2     0.900000E-01   1.00800           0
     17011 MEMB     128      POPC     C29      CEL1    -0.150000       12.0110           0
     17012 MEMB     128      POPC     H91      HEL1     0.150000       1.00800           0
     17013 MEMB     128      POPC     C210     CEL1    -0.150000       12.0110           0
     17014 MEMB     128      POPC     H101     HEL1     0.150000       1.00800           0
     17015 MEMB     128      POPC     C211     CTL2    -0.180000       12.0110           0
     17016 MEMB     128      POPC     H11R     HAL2     0.900000E-01   1.00800           0
     17017 MEMB     128      POPC     H11S     HAL2     0.900000E-01   1.00800           0
     17018 MEMB     128      POPC     C212     CTL2    -0.180000       12.0110           0
     17019 MEMB     128      POPC     H12R     HAL2     0.900000E-01   1.00800           0
     17020 MEMB     128      POPC     H12S     HAL2     0.900000E-01   1.00800           0
     17021 MEMB     128      POPC     C213     CTL2    -0.180000       12.0110           0
     17022 MEMB     128      POPC     H13R     HAL2     0.900000E-01   1.00800           0
     17023 MEMB     128      POPC     H13S     HAL2     0.900000E-01   1.00800           0
     17024 MEMB     128      POPC     C214     CTL2    -0.180000       12.0110           0
     17025 MEMB     128      POPC     H14R     HAL2     0.900000E-01   1.00800           0
     17026 MEMB     128      POPC     H14S     HAL2     0.900000E-01   1.00800           0
     17027 MEMB     128      POPC     C215     CTL2    -0.180000       12.0110           0
     17028 MEMB     128      POPC     H15R     HAL2     0.900000E-01   1.00800           0
     17029 MEMB     128      POPC     H15S     HAL2     0.900000E-01   1.00800           0
     17030 MEMB     128      POPC     C216     CTL2    -0.180000       12.0110           0
     17031 MEMB     128      POPC     H16R     HAL2     0.900000E-01   1.00800           0
     17032 MEMB     128      POPC     H16S     HAL2     0.900000E-01   1.00800           0
     17033 MEMB     128      POPC     C217     CTL2    -0.180000       12.0110           0
     17034 MEMB     128      POPC     H17R     HAL2     0.900000E-01   1.00800           0
     17035 MEMB     128      POPC     H17S     HAL2     0.900000E-01   1.00800           0
     17036 MEMB     128      POPC     C218     CTL3    -0.270000       12.0110           0
     17037 MEMB     128      POPC     H18R     HAL3     0.900000E-01   1.00800           0
     17038 MEMB     128      POPC     H18S     HAL3     0.900000E-01   1.00800           0
     17039 MEMB     128      POPC     H18T     HAL3     0.900000E-01   1.00800           0
     17040 MEMB     128      POPC     C33      CTL2    -0.180000       12.0110           0
     17041 MEMB     128      POPC     H3X      HAL2     0.900000E-01   1.00800           0
     17042 MEMB     128      POPC     H3Y      HAL2     0.900000E-01   1.00800           0
     17043 MEMB     128      POPC     C34      CTL2    -0.180000       12.0110           0
     17044 MEMB     128      POPC     H4X      HAL2     0.900000E-01   1.00800           0
     17045 MEMB     128      POPC     H4Y      HAL2     0.900000E-01   1.00800           0
     17046 MEMB     128      POPC     C35      CTL2    -0.180000       12.0110           0
     17047 MEMB     128      POPC     H5X      HAL2     0.900000E-01   1.00800           0
     17048 MEMB     128      POPC     H5Y      HAL2     0.900000E-01   1.00800           0
     17049 MEMB     128      POPC     C36      CTL2    -0.180000       12.0110           0
     17050 MEMB     128      POPC     H6X      HAL2     0.900000E-01   1.00800           0
     17051 MEMB     128      POPC     H6Y      HAL2     0.900000E-01   1.00800           0
     17052 MEMB     128      POPC     C37      CTL2    -0.180000       12.0110           0
     17053 MEMB     128      POPC     H7X      HAL2     0.900000E-01   1.00800           0
     17054 MEMB     128      POPC     H7Y      HAL2     0.900000E-01   1.00800           0
     17055 MEMB     128      POPC     C38      CTL2    -0.180000       12.0110           0
     17056 MEMB     128      POPC     H8X      HAL2     0.900000E-01   1.00800           0
     17057 MEMB     128      POPC     H8Y      HAL2     0.900000E-01   1.00800           0
     17058 MEMB     128      POPC     C39      CTL2    -0.180000       12.0110           0
     17059 MEMB     128      POPC     H9X      HAL2     0.900000E-01   1.00800           0
     17060 MEMB     128      POPC     H9Y      HAL2     0.900000E-01   1.00800           0
     17061 MEMB     128      POPC     C310     CTL2    -0.180000       12.0110           0
     17062 MEMB     128      POPC     H10X     HAL2     0.900000E-01   1.00800           0
     17063 MEMB     128      POPC     H10Y     HAL2     0.900000E-01   1.00800           0
     17064 MEMB     128      POPC     C311     CTL2    -0.180000       12.0110           0
     17065 MEMB     128      POPC     H11X     HAL2     0.900000E-01   1.00800           0
     17066 MEMB     128      POPC     H11Y     HAL2     0.900000E-01   1.00800           0
     17067 MEMB     128      POPC     C312     CTL2    -0.180000       12.0110           0
     17068 MEMB     128      POPC     H12X     HAL2     0.900000E-01   1.00800           0
     17069 MEMB     128      POPC     H12Y     HAL2     0.900000E-01   1.00800           0
     17070 MEMB     128      POPC     C313     CTL2    -0.180000       12.0110           0
     17071 MEMB     128      POPC     H13X     HAL2     0.900000E-01   1.00800           0
     17072 MEMB     128      POPC     H13Y     HAL2     0.900000E-01   1.00800           0
     17073 MEMB     128      POPC     C314     CTL2    -0.180000       12.0110           0
     17074 MEMB     128      POPC     H14X     HAL2     0.900000E-01   1.00800           0
     17075 MEMB     128      POPC     H14Y     HAL2     0.900000E-01   1.00800           0
     17076 MEMB     128      POPC     C315     CTL2    -0.180000       12.0110           0
     17077 MEMB     128      POPC     H15X     HAL2     0.900000E-01   1.00800           0
     17078 MEMB     128      POPC     H15Y     HAL2     0.900000E-01   1.00800           0
     17079 MEMB     128      POPC     C316     CTL3    -0.270000       12.0110           0
     17080 MEMB     128      POPC     H16X     HAL3     0.900000E-01   1.00800           0
     17081 MEMB     128      POPC     H16Y     HAL3     0.900000E-01   1.00800           0
     17082 MEMB     128      POPC     H16Z     HAL3     0.900000E-01   1.00800           0
     17083 MEMB     129      POPC     N        NTL     -0.600000       14.0070           0
     17084 MEMB     129      POPC     C12      CTL2    -0.100000       12.0110           0
     17085 MEMB     129      POPC     H12A     HL       0.250000       1.00800           0
     17086 MEMB     129      POPC     H12B     HL       0.250000       1.00800           0
     17087 MEMB     129      POPC     C13      CTL5    -0.350000       12.0110           0
     17088 MEMB     129      POPC     H13A     HL       0.250000       1.00800           0
     17089 MEMB     129      POPC     H13B     HL       0.250000       1.00800           0
     17090 MEMB     129      POPC     H13C     HL       0.250000       1.00800           0
     17091 MEMB     129      POPC     C14      CTL5    -0.350000       12.0110           0
     17092 MEMB     129      POPC     H14A     HL       0.250000       1.00800           0
     17093 MEMB     129      POPC     H14B     HL       0.250000       1.00800           0
     17094 MEMB     129      POPC     H14C     HL       0.250000       1.00800           0
     17095 MEMB     129      POPC     C15      CTL5    -0.350000       12.0110           0
     17096 MEMB     129      POPC     H15A     HL       0.250000       1.00800           0
     17097 MEMB     129      POPC     H15B     HL       0.250000       1.00800           0
     17098 MEMB     129      POPC     H15C     HL       0.250000       1.00800           0
     17099 MEMB     129      POPC     C11      CTL2    -0.800000E-01   12.0110           0
     17100 MEMB     129      POPC     H11A     HAL2     0.900000E-01   1.00800           0
     17101 MEMB     129      POPC     H11B     HAL2     0.900000E-01   1.00800           0
     17102 MEMB     129      POPC     P        PL       1.500000       30.9740           0
     17103 MEMB     129      POPC     O13      O2L     -0.780000       15.9994           0
     17104 MEMB     129      POPC     O14      O2L     -0.780000       15.9994           0
     17105 MEMB     129      POPC     O12      OSLP    -0.570000       15.9994           0
     17106 MEMB     129      POPC     O11      OSLP    -0.570000       15.9994           0
     17107 MEMB     129      POPC     C1       CTL2    -0.800000E-01   12.0110           0
     17108 MEMB     129      POPC     HA       HAL2     0.900000E-01   1.00800           0
     17109 MEMB     129      POPC     HB       HAL2     0.900000E-01   1.00800           0
     17110 MEMB     129      POPC     C2       CTL1     0.170000       12.0110           0
     17111 MEMB     129      POPC     HS       HAL1     0.900000E-01   1.00800           0
     17112 MEMB     129      POPC     O21      OSL     -0.490000       15.9994           0
     17113 MEMB     129      POPC     C21      CL       0.900000       12.0110           0
     17114 MEMB     129      POPC     O22      OBL     -0.630000       15.9994           0
     17115 MEMB     129      POPC     C22      CTL2    -0.220000       12.0110           0
     17116 MEMB     129      POPC     H2R      HAL2     0.900000E-01   1.00800           0
     17117 MEMB     129      POPC     H2S      HAL2     0.900000E-01   1.00800           0
     17118 MEMB     129      POPC     C3       CTL2     0.800000E-01   12.0110           0
     17119 MEMB     129      POPC     HX       HAL2     0.900000E-01   1.00800           0
     17120 MEMB     129      POPC     HY       HAL2     0.900000E-01   1.00800           0
     17121 MEMB     129      POPC     O31      OSL     -0.490000       15.9994           0
     17122 MEMB     129      POPC     C31      CL       0.900000       12.0110           0
     17123 MEMB     129      POPC     O32      OBL     -0.630000       15.9994           0
     17124 MEMB     129      POPC     C32      CTL2    -0.220000       12.0110           0
     17125 MEMB     129      POPC     H2X      HAL2     0.900000E-01   1.00800           0
     17126 MEMB     129      POPC     H2Y      HAL2     0.900000E-01   1.00800           0
     17127 MEMB     129      POPC     C23      CTL2    -0.180000       12.0110           0
     17128 MEMB     129      POPC     H3R      HAL2     0.900000E-01   1.00800           0
     17129 MEMB     129      POPC     H3S      HAL2     0.900000E-01   1.00800           0
     17130 MEMB     129      POPC     C24      CTL2    -0.180000       12.0110           0
     17131 MEMB     129      POPC     H4R      HAL2     0.900000E-01   1.00800           0
     17132 MEMB     129      POPC     H4S      HAL2     0.900000E-01   1.00800           0
     17133 MEMB     129      POPC     C25      CTL2    -0.180000       12.0110           0
     17134 MEMB     129      POPC     H5R      HAL2     0.900000E-01   1.00800           0
     17135 MEMB     129      POPC     H5S      HAL2     0.900000E-01   1.00800           0
     17136 MEMB     129      POPC     C26      CTL2    -0.180000       12.0110           0
     17137 MEMB     129      POPC     H6R      HAL2     0.900000E-01   1.00800           0
     17138 MEMB     129      POPC     H6S      HAL2     0.900000E-01   1.00800           0
     17139 MEMB     129      POPC     C27      CTL2    -0.180000       12.0110           0
     17140 MEMB     129      POPC     H7R      HAL2     0.900000E-01   1.00800           0
     17141 MEMB     129      POPC     H7S      HAL2     0.900000E-01   1.00800           0
     17142 MEMB     129      POPC     C28      CTL2    -0.180000       12.0110           0
     17143 MEMB     129      POPC     H8R      HAL2     0.900000E-01   1.00800           0
     17144 MEMB     129      POPC     H8S      HAL2     0.900000E-01   1.00800           0
     17145 MEMB     129      POPC     C29      CEL1    -0.150000       12.0110           0
     17146 MEMB     129      POPC     H91      HEL1     0.150000       1.00800           0
     17147 MEMB     129      POPC     C210     CEL1    -0.150000       12.0110           0
     17148 MEMB     129      POPC     H101     HEL1     0.150000       1.00800           0
     17149 MEMB     129      POPC     C211     CTL2    -0.180000       12.0110           0
     17150 MEMB     129      POPC     H11R     HAL2     0.900000E-01   1.00800           0
     17151 MEMB     129      POPC     H11S     HAL2     0.900000E-01   1.00800           0
     17152 MEMB     129      POPC     C212     CTL2    -0.180000       12.0110           0
     17153 MEMB     129      POPC     H12R     HAL2     0.900000E-01   1.00800           0
     17154 MEMB     129      POPC     H12S     HAL2     0.900000E-01   1.00800           0
     17155 MEMB     129      POPC     C213     CTL2    -0.180000       12.0110           0
     17156 MEMB     129      POPC     H13R     HAL2     0.900000E-01   1.00800           0
     17157 MEMB     129      POPC     H13S     HAL2     0.900000E-01   1.00800           0
     17158 MEMB     129      POPC     C214     CTL2    -0.180000       12.0110           0
     17159 MEMB     129      POPC     H14R     HAL2     0.900000E-01   1.00800           0
     17160 MEMB     129      POPC     H14S     HAL2     0.900000E-01   1.00800           0
     17161 MEMB     129      POPC     C215     CTL2    -0.180000       12.0110           0
     17162 MEMB     129      POPC     H15R     HAL2     0.900000E-01   1.00800           0
     17163 MEMB     129      POPC     H15S     HAL2     0.900000E-01   1.00800           0
     17164 MEMB     129      POPC     C216     CTL2    -0.180000       12.0110           0
     17165 MEMB     129      POPC     H16R     HAL2     0.900000E-01   1.00800           0
     17166 MEMB     129      POPC     H16S     HAL2     0.900000E-01   1.00800           0
     17167 MEMB     129      POPC     C217     CTL2    -0.180000       12.0110           0
     17168 MEMB     129      POPC     H17R     HAL2     0.900000E-01   1.00800           0
     17169 MEMB     129      POPC     H17S     HAL2     0.900000E-01   1.00800           0
     17170 MEMB     129      POPC     C218     CTL3    -0.270000       12.0110           0
     17171 MEMB     129      POPC     H18R     HAL3     0.900000E-01   1.00800           0
     17172 MEMB     129      POPC     H18S     HAL3     0.900000E-01   1.00800           0
     17173 MEMB     129      POPC     H18T     HAL3     0.900000E-01   1.00800           0
     17174 MEMB     129      POPC     C33      CTL2    -0.180000       12.0110           0
     17175 MEMB     129      POPC     H3X      HAL2     0.900000E-01   1.00800           0
     17176 MEMB     129      POPC     H3Y      HAL2     0.900000E-01   1.00800           0
     17177 MEMB     129      POPC     C34      CTL2    -0.180000       12.0110           0
     17178 MEMB     129      POPC     H4X      HAL2     0.900000E-01   1.00800           0
     17179 MEMB     129      POPC     H4Y      HAL2     0.900000E-01   1.00800           0
     17180 MEMB     129      POPC     C35      CTL2    -0.180000       12.0110           0
     17181 MEMB     129      POPC     H5X      HAL2     0.900000E-01   1.00800           0
     17182 MEMB     129      POPC     H5Y      HAL2     0.900000E-01   1.00800           0
     17183 MEMB     129      POPC     C36      CTL2    -0.180000       12.0110           0
     17184 MEMB     129      POPC     H6X      HAL2     0.900000E-01   1.00800           0
     17185 MEMB     129      POPC     H6Y      HAL2     0.900000E-01   1.00800           0
     17186 MEMB     129      POPC     C37      CTL2    -0.180000       12.0110           0
     17187 MEMB     129      POPC     H7X      HAL2     0.900000E-01   1.00800           0
     17188 MEMB     129      POPC     H7Y      HAL2     0.900000E-01   1.00800           0
     17189 MEMB     129      POPC     C38      CTL2    -0.180000       12.0110           0
     17190 MEMB     129      POPC     H8X      HAL2     0.900000E-01   1.00800           0
     17191 MEMB     129      POPC     H8Y      HAL2     0.900000E-01   1.00800           0
     17192 MEMB     129      POPC     C39      CTL2    -0.180000       12.0110           0
     17193 MEMB     129      POPC     H9X      HAL2     0.900000E-01   1.00800           0
     17194 MEMB     129      POPC     H9Y      HAL2     0.900000E-01   1.00800           0
     17195 MEMB     129      POPC     C310     CTL2    -0.180000       12.0110           0
     17196 MEMB     129      POPC     H10X     HAL2     0.900000E-01   1.00800           0
     17197 MEMB     129      POPC     H10Y     HAL2     0.900000E-01   1.00800           0
     17198 MEMB     129      POPC     C311     CTL2    -0.180000       12.0110           0
     17199 MEMB     129      POPC     H11X     HAL2     0.900000E-01   1.00800           0
     17200 MEMB     129      POPC     H11Y     HAL2     0.900000E-01   1.00800           0
     17201 MEMB     129      POPC     C312     CTL2    -0.180000       12.0110           0
     17202 MEMB     129      POPC     H12X     HAL2     0.900000E-01   1.00800           0
     17203 MEMB     129      POPC     H12Y     HAL2     0.900000E-01   1.00800           0
     17204 MEMB     129      POPC     C313     CTL2    -0.180000       12.0110           0
     17205 MEMB     129      POPC     H13X     HAL2     0.900000E-01   1.00800           0
     17206 MEMB     129      POPC     H13Y     HAL2     0.900000E-01   1.00800           0
     17207 MEMB     129      POPC     C314     CTL2    -0.180000       12.0110           0
     17208 MEMB     129      POPC     H14X     HAL2     0.900000E-01   1.00800           0
     17209 MEMB     129      POPC     H14Y     HAL2     0.900000E-01   1.00800           0
     17210 MEMB     129      POPC     C315     CTL2    -0.180000       12.0110           0
     17211 MEMB     129      POPC     H15X     HAL2     0.900000E-01   1.00800           0
     17212 MEMB     129      POPC     H15Y     HAL2     0.900000E-01   1.00800           0
     17213 MEMB     129      POPC     C316     CTL3    -0.270000       12.0110           0
     17214 MEMB     129      POPC     H16X     HAL3     0.900000E-01   1.00800           0
     17215 MEMB     129      POPC     H16Y     HAL3     0.900000E-01   1.00800           0
     17216 MEMB     129      POPC     H16Z     HAL3     0.900000E-01   1.00800           0
     17217 MEMB     130      POPC     N        NTL     -0.600000       14.0070           0
     17218 MEMB     130      POPC     C12      CTL2    -0.100000       12.0110           0
     17219 MEMB     130      POPC     H12A     HL       0.250000       1.00800           0
     17220 MEMB     130      POPC     H12B     HL       0.250000       1.00800           0
     17221 MEMB     130      POPC     C13      CTL5    -0.350000       12.0110           0
     17222 MEMB     130      POPC     H13A     HL       0.250000       1.00800           0
     17223 MEMB     130      POPC     H13B     HL       0.250000       1.00800           0
     17224 MEMB     130      POPC     H13C     HL       0.250000       1.00800           0
     17225 MEMB     130      POPC     C14      CTL5    -0.350000       12.0110           0
     17226 MEMB     130      POPC     H14A     HL       0.250000       1.00800           0
     17227 MEMB     130      POPC     H14B     HL       0.250000       1.00800           0
     17228 MEMB     130      POPC     H14C     HL       0.250000       1.00800           0
     17229 MEMB     130      POPC     C15      CTL5    -0.350000       12.0110           0
     17230 MEMB     130      POPC     H15A     HL       0.250000       1.00800           0
     17231 MEMB     130      POPC     H15B     HL       0.250000       1.00800           0
     17232 MEMB     130      POPC     H15C     HL       0.250000       1.00800           0
     17233 MEMB     130      POPC     C11      CTL2    -0.800000E-01   12.0110           0
     17234 MEMB     130      POPC     H11A     HAL2     0.900000E-01   1.00800           0
     17235 MEMB     130      POPC     H11B     HAL2     0.900000E-01   1.00800           0
     17236 MEMB     130      POPC     P        PL       1.500000       30.9740           0
     17237 MEMB     130      POPC     O13      O2L     -0.780000       15.9994           0
     17238 MEMB     130      POPC     O14      O2L     -0.780000       15.9994           0
     17239 MEMB     130      POPC     O12      OSLP    -0.570000       15.9994           0
     17240 MEMB     130      POPC     O11      OSLP    -0.570000       15.9994           0
     17241 MEMB     130      POPC     C1       CTL2    -0.800000E-01   12.0110           0
     17242 MEMB     130      POPC     HA       HAL2     0.900000E-01   1.00800           0
     17243 MEMB     130      POPC     HB       HAL2     0.900000E-01   1.00800           0
     17244 MEMB     130      POPC     C2       CTL1     0.170000       12.0110           0
     17245 MEMB     130      POPC     HS       HAL1     0.900000E-01   1.00800           0
     17246 MEMB     130      POPC     O21      OSL     -0.490000       15.9994           0
     17247 MEMB     130      POPC     C21      CL       0.900000       12.0110           0
     17248 MEMB     130      POPC     O22      OBL     -0.630000       15.9994           0
     17249 MEMB     130      POPC     C22      CTL2    -0.220000       12.0110           0
     17250 MEMB     130      POPC     H2R      HAL2     0.900000E-01   1.00800           0
     17251 MEMB     130      POPC     H2S      HAL2     0.900000E-01   1.00800           0
     17252 MEMB     130      POPC     C3       CTL2     0.800000E-01   12.0110           0
     17253 MEMB     130      POPC     HX       HAL2     0.900000E-01   1.00800           0
     17254 MEMB     130      POPC     HY       HAL2     0.900000E-01   1.00800           0
     17255 MEMB     130      POPC     O31      OSL     -0.490000       15.9994           0
     17256 MEMB     130      POPC     C31      CL       0.900000       12.0110           0
     17257 MEMB     130      POPC     O32      OBL     -0.630000       15.9994           0
     17258 MEMB     130      POPC     C32      CTL2    -0.220000       12.0110           0
     17259 MEMB     130      POPC     H2X      HAL2     0.900000E-01   1.00800           0
     17260 MEMB     130      POPC     H2Y      HAL2     0.900000E-01   1.00800           0
     17261 MEMB     130      POPC     C23      CTL2    -0.180000       12.0110           0
     17262 MEMB     130      POPC     H3R      HAL2     0.900000E-01   1.00800           0
     17263 MEMB     130      POPC     H3S      HAL2     0.900000E-01   1.00800           0
     17264 MEMB     130      POPC     C24      CTL2    -0.180000       12.0110           0
     17265 MEMB     130      POPC     H4R      HAL2     0.900000E-01   1.00800           0
     17266 MEMB     130      POPC     H4S      HAL2     0.900000E-01   1.00800           0
     17267 MEMB     130      POPC     C25      CTL2    -0.180000       12.0110           0
     17268 MEMB     130      POPC     H5R      HAL2     0.900000E-01   1.00800           0
     17269 MEMB     130      POPC     H5S      HAL2     0.900000E-01   1.00800           0
     17270 MEMB     130      POPC     C26      CTL2    -0.180000       12.0110           0
     17271 MEMB     130      POPC     H6R      HAL2     0.900000E-01   1.00800           0
     17272 MEMB     130      POPC     H6S      HAL2     0.900000E-01   1.00800           0
     17273 MEMB     130      POPC     C27      CTL2    -0.180000       12.0110           0
     17274 MEMB     130      POPC     H7R      HAL2     0.900000E-01   1.00800           0
     17275 MEMB     130      POPC     H7S      HAL2     0.900000E-01   1.00800           0
     17276 MEMB     130      POPC     C28      CTL2    -0.180000       12.0110           0
     17277 MEMB     130      POPC     H8R      HAL2     0.900000E-01   1.00800           0
     17278 MEMB     130      POPC     H8S      HAL2     0.900000E-01   1.00800           0
     17279 MEMB     130      POPC     C29      CEL1    -0.150000       12.0110           0
     17280 MEMB     130      POPC     H91      HEL1     0.150000       1.00800           0
     17281 MEMB     130      POPC     C210     CEL1    -0.150000       12.0110           0
     17282 MEMB     130      POPC     H101     HEL1     0.150000       1.00800           0
     17283 MEMB     130      POPC     C211     CTL2    -0.180000       12.0110           0
     17284 MEMB     130      POPC     H11R     HAL2     0.900000E-01   1.00800           0
     17285 MEMB     130      POPC     H11S     HAL2     0.900000E-01   1.00800           0
     17286 MEMB     130      POPC     C212     CTL2    -0.180000       12.0110           0
     17287 MEMB     130      POPC     H12R     HAL2     0.900000E-01   1.00800           0
     17288 MEMB     130      POPC     H12S     HAL2     0.900000E-01   1.00800           0
     17289 MEMB     130      POPC     C213     CTL2    -0.180000       12.0110           0
     17290 MEMB     130      POPC     H13R     HAL2     0.900000E-01   1.00800           0
     17291 MEMB     130      POPC     H13S     HAL2     0.900000E-01   1.00800           0
     17292 MEMB     130      POPC     C214     CTL2    -0.180000       12.0110           0
     17293 MEMB     130      POPC     H14R     HAL2     0.900000E-01   1.00800           0
     17294 MEMB     130      POPC     H14S     HAL2     0.900000E-01   1.00800           0
     17295 MEMB     130      POPC     C215     CTL2    -0.180000       12.0110           0
     17296 MEMB     130      POPC     H15R     HAL2     0.900000E-01   1.00800           0
     17297 MEMB     130      POPC     H15S     HAL2     0.900000E-01   1.00800           0
     17298 MEMB     130      POPC     C216     CTL2    -0.180000       12.0110           0
     17299 MEMB     130      POPC     H16R     HAL2     0.900000E-01   1.00800           0
     17300 MEMB     130      POPC     H16S     HAL2     0.900000E-01   1.00800           0
     17301 MEMB     130      POPC     C217     CTL2    -0.180000       12.0110           0
     17302 MEMB     130      POPC     H17R     HAL2     0.900000E-01   1.00800           0
     17303 MEMB     130      POPC     H17S     HAL2     0.900000E-01   1.00800           0
     17304 MEMB     130      POPC     C218     CTL3    -0.270000       12.0110           0
     17305 MEMB     130      POPC     H18R     HAL3     0.900000E-01   1.00800           0
     17306 MEMB     130      POPC     H18S     HAL3     0.900000E-01   1.00800           0
     17307 MEMB     130      POPC     H18T     HAL3     0.900000E-01   1.00800           0
     17308 MEMB     130      POPC     C33      CTL2    -0.180000       12.0110           0
     17309 MEMB     130      POPC     H3X      HAL2     0.900000E-01   1.00800           0
     17310 MEMB     130      POPC     H3Y      HAL2     0.900000E-01   1.00800           0
     17311 MEMB     130      POPC     C34      CTL2    -0.180000       12.0110           0
     17312 MEMB     130      POPC     H4X      HAL2     0.900000E-01   1.00800           0
     17313 MEMB     130      POPC     H4Y      HAL2     0.900000E-01   1.00800           0
     17314 MEMB     130      POPC     C35      CTL2    -0.180000       12.0110           0
     17315 MEMB     130      POPC     H5X      HAL2     0.900000E-01   1.00800           0
     17316 MEMB     130      POPC     H5Y      HAL2     0.900000E-01   1.00800           0
     17317 MEMB     130      POPC     C36      CTL2    -0.180000       12.0110           0
     17318 MEMB     130      POPC     H6X      HAL2     0.900000E-01   1.00800           0
     17319 MEMB     130      POPC     H6Y      HAL2     0.900000E-01   1.00800           0
     17320 MEMB     130      POPC     C37      CTL2    -0.180000       12.0110           0
     17321 MEMB     130      POPC     H7X      HAL2     0.900000E-01   1.00800           0
     17322 MEMB     130      POPC     H7Y      HAL2     0.900000E-01   1.00800           0
     17323 MEMB     130      POPC     C38      CTL2    -0.180000       12.0110           0
     17324 MEMB     130      POPC     H8X      HAL2     0.900000E-01   1.00800           0
     17325 MEMB     130      POPC     H8Y      HAL2     0.900000E-01   1.00800           0
     17326 MEMB     130      POPC     C39      CTL2    -0.180000       12.0110           0
     17327 MEMB     130      POPC     H9X      HAL2     0.900000E-01   1.00800           0
     17328 MEMB     130      POPC     H9Y      HAL2     0.900000E-01   1.00800           0
     17329 MEMB     130      POPC     C310     CTL2    -0.180000       12.0110           0
     17330 MEMB     130      POPC     H10X     HAL2     0.900000E-01   1.00800           0
     17331 MEMB     130      POPC     H10Y     HAL2     0.900000E-01   1.00800           0
     17332 MEMB     130      POPC     C311     CTL2    -0.180000       12.0110           0
     17333 MEMB     130      POPC     H11X     HAL2     0.900000E-01   1.00800           0
     17334 MEMB     130      POPC     H11Y     HAL2     0.900000E-01   1.00800           0
     17335 MEMB     130      POPC     C312     CTL2    -0.180000       12.0110           0
     17336 MEMB     130      POPC     H12X     HAL2     0.900000E-01   1.00800           0
     17337 MEMB     130      POPC     H12Y     HAL2     0.900000E-01   1.00800           0
     17338 MEMB     130      POPC     C313     CTL2    -0.180000       12.0110           0
     17339 MEMB     130      POPC     H13X     HAL2     0.900000E-01   1.00800           0
     17340 MEMB     130      POPC     H13Y     HAL2     0.900000E-01   1.00800           0
     17341 MEMB     130      POPC     C314     CTL2    -0.180000       12.0110           0
     17342 MEMB     130      POPC     H14X     HAL2     0.900000E-01   1.00800           0
     17343 MEMB     130      POPC     H14Y     HAL2     0.900000E-01   1.00800           0
     17344 MEMB     130      POPC     C315     CTL2    -0.180000       12.0110           0
     17345 MEMB     130      POPC     H15X     HAL2     0.900000E-01   1.00800           0
     17346 MEMB     130      POPC     H15Y     HAL2     0.900000E-01   1.00800           0
     17347 MEMB     130      POPC     C316     CTL3    -0.270000       12.0110           0
     17348 MEMB     130      POPC     H16X     HAL3     0.900000E-01   1.00800           0
     17349 MEMB     130      POPC     H16Y     HAL3     0.900000E-01   1.00800           0
     17350 MEMB     130      POPC     H16Z     HAL3     0.900000E-01   1.00800           0
     17351 TIP3     1        TIP3     OH2      OT      -0.834000       15.9994           0
     17352 TIP3     1        TIP3     H1       HT       0.417000       1.00800           0
     17353 TIP3     1        TIP3     H2       HT       0.417000       1.00800           0
     17354 TIP3     2        TIP3     OH2      OT      -0.834000       15.9994           0
     17355 TIP3     2        TIP3     H1       HT       0.417000       1.00800           0
     17356 TIP3     2        TIP3     H2       HT       0.417000       1.00800           0
     17357 TIP3     3        TIP3     OH2      OT      -0.834000       15.9994           0
     17358 TIP3     3        TIP3     H1       HT       0.417000       1.00800           0
     17359 TIP3     3        TIP3     H2       HT       0.417000       1.00800           0
     17360 TIP3     4        TIP3     OH2      OT      -0.834000       15.9994           0
     17361 TIP3     4        TIP3     H1       HT       0.417000       1.00800           0
     17362 TIP3     4        TIP3     H2       HT       0.417000       1.00800           0
     17363 TIP3     5        TIP3     OH2      OT      -0.834000       15.9994           0
     17364 TIP3     5        TIP3     H1       HT       0.417000       1.00800           0
     17365 TIP3     5        TIP3     H2       HT       0.417000       1.00800           0
     17366 TIP3     6        TIP3     OH2      OT      -0.834000       15.9994           0
     17367 TIP3     6        TIP3     H1       HT       0.417000       1.00800           0
     17368 TIP3     6        TIP3     H2       HT       0.417000       1.00800           0
     17369 TIP3     7        TIP3     OH2      OT      -0.834000       15.9994           0
     17370 TIP3     7        TIP3     H1       HT       0.417000       1.00800           0
     17371 TIP3     7        TIP3     H2       HT       0.417000       1.00800           0
     17372 TIP3     8        TIP3     OH2      OT      -0.834000       15.9994           0
     17373 TIP3     8        TIP3     H1       HT       0.417000       1.00800           0
     17374 TIP3     8        TIP3     H2       HT       0.417000       1.00800           0
     17375 TIP3     9        TIP3     OH2      OT      -0.834000       15.9994           0
     17376 TIP3     9        TIP3     H1       HT       0.417000       1.00800           0
     17377 TIP3     9        TIP3     H2       HT       0.417000       1.00800           0
     17378 TIP3     10       TIP3     OH2      OT      -0.834000       15.9994           0
     17379 TIP3     10       TIP3     H1       HT       0.417000       1.00800           0
     17380 TIP3     10       TIP3     H2       HT       0.417000       1.00800           0
     17381 TIP3     11       TIP3     OH2      OT      -0.834000       15.9994           0
     17382 TIP3     11       TIP3     H1       HT       0.417000       1.00800           0
     17383 TIP3     11       TIP3     H2       HT       0.417000       1.00800           0
     17384 TIP3     12       TIP3     OH2      OT      -0.834000       15.9994           0
     17385 TIP3     12       TIP3     H1       HT       0.417000       1.00800           0
     17386 TIP3     12       TIP3     H2       HT       0.417000       1.00800           0
     17387 TIP3     13       TIP3     OH2      OT      -0.834000       15.9994           0
     17388 TIP3     13       TIP3     H1       HT       0.417000       1.00800           0
     17389 TIP3     13       TIP3     H2       HT       0.417000       1.00800           0
     17390 TIP3     14       TIP3     OH2      OT      -0.834000       15.9994           0
     17391 TIP3     14       TIP3     H1       HT       0.417000       1.00800           0
     17392 TIP3     14       TIP3     H2       HT       0.417000       1.00800           0
     17393 TIP3     15       TIP3     OH2      OT      -0.834000       15.9994           0
     17394 TIP3     15       TIP3     H1       HT       0.417000       1.00800           0
     17395 TIP3     15       TIP3     H2       HT       0.417000       1.00800           0
     17396 TIP3     16       TIP3     OH2      OT      -0.834000       15.9994           0
     17397 TIP3     16       TIP3     H1       HT       0.417000       1.00800           0
     17398 TIP3     16       TIP3     H2       HT       0.417000       1.00800           0
     17399 TIP3     17       TIP3     OH2      OT      -0.834000       15.9994           0
     17400 TIP3     17       TIP3     H1       HT       0.417000       1.00800           0
     17401 TIP3     17       TIP3     H2       HT       0.417000       1.00800           0
     17402 TIP3     18       TIP3     OH2      OT      -0.834000       15.9994           0
     17403 TIP3     18       TIP3     H1       HT       0.417000       1.00800           0
     17404 TIP3     18       TIP3     H2       HT       0.417000       1.00800           0
     17405 TIP3     19       TIP3     OH2      OT      -0.834000       15.9994           0
     17406 TIP3     19       TIP3     H1       HT       0.417000       1.00800           0
     17407 TIP3     19       TIP3     H2       HT       0.417000       1.00800           0
     17408 TIP3     20       TIP3     OH2      OT      -0.834000       15.9994           0
     17409 TIP3     20       TIP3     H1       HT       0.417000       1.00800           0
     17410 TIP3     20       TIP3     H2       HT       0.417000       1.00800           0
     17411 TIP3     21       TIP3     OH2      OT      -0.834000       15.9994           0
     17412 TIP3     21       TIP3     H1       HT       0.417000       1.00800           0
     17413 TIP3     21       TIP3     H2       HT       0.417000       1.00800           0
     17414 TIP3     22       TIP3     OH2      OT      -0.834000       15.9994           0
     17415 TIP3     22       TIP3     H1       HT       0.417000       1.00800           0
     17416 TIP3     22       TIP3     H2       HT       0.417000       1.00800           0
     17417 TIP3     23       TIP3     OH2      OT      -0.834000       15.9994           0
     17418 TIP3     23       TIP3     H1       HT       0.417000       1.00800           0
     17419 TIP3     23       TIP3     H2       HT       0.417000       1.00800           0
     17420 TIP3     24       TIP3     OH2      OT      -0.834000       15.9994           0
     17421 TIP3     24       TIP3     H1       HT       0.417000       1.00800           0
     17422 TIP3     24       TIP3     H2       HT       0.417000       1.00800           0
     17423 TIP3     25       TIP3     OH2      OT      -0.834000       15.9994           0
     17424 TIP3     25       TIP3     H1       HT       0.417000       1.00800           0
     17425 TIP3     25       TIP3     H2       HT       0.417000       1.00800           0
     17426 TIP3     26       TIP3     OH2      OT      -0.834000       15.9994           0
     17427 TIP3     26       TIP3     H1       HT       0.417000       1.00800           0
     17428 TIP3     26       TIP3     H2       HT       0.417000       1.00800           0
     17429 TIP3     27       TIP3     OH2      OT      -0.834000       15.9994           0
     17430 TIP3     27       TIP3     H1       HT       0.417000       1.00800           0
     17431 TIP3     27       TIP3     H2       HT       0.417000       1.00800           0
     17432 TIP3     28       TIP3     OH2      OT      -0.834000       15.9994           0
     17433 TIP3     28       TIP3     H1       HT       0.417000       1.00800           0
     17434 TIP3     28       TIP3     H2       HT       0.417000       1.00800           0
     17435 TIP3     29       TIP3     OH2      OT      -0.834000       15.9994           0
     17436 TIP3     29       TIP3     H1       HT       0.417000       1.00800           0
     17437 TIP3     29       TIP3     H2       HT       0.417000       1.00800           0
     17438 TIP3     30       TIP3     OH2      OT      -0.834000       15.9994           0
     17439 TIP3     30       TIP3     H1       HT       0.417000       1.00800           0
     17440 TIP3     30       TIP3     H2       HT       0.417000       1.00800           0
     17441 TIP3     31       TIP3     OH2      OT      -0.834000       15.9994           0
     17442 TIP3     31       TIP3     H1       HT       0.417000       1.00800           0
     17443 TIP3     31       TIP3     H2       HT       0.417000       1.00800           0
     17444 TIP3     32       TIP3     OH2      OT      -0.834000       15.9994           0
     17445 TIP3     32       TIP3     H1       HT       0.417000       1.00800           0
     17446 TIP3     32       TIP3     H2       HT       0.417000       1.00800           0
     17447 TIP3     33       TIP3     OH2      OT      -0.834000       15.9994           0
     17448 TIP3     33       TIP3     H1       HT       0.417000       1.00800           0
     17449 TIP3     33       TIP3     H2       HT       0.417000       1.00800           0
     17450 TIP3     34       TIP3     OH2      OT      -0.834000       15.9994           0
     17451 TIP3     34       TIP3     H1       HT       0.417000       1.00800           0
     17452 TIP3     34       TIP3     H2       HT       0.417000       1.00800           0
     17453 TIP3     35       TIP3     OH2      OT      -0.834000       15.9994           0
     17454 TIP3     35       TIP3     H1       HT       0.417000       1.00800           0
     17455 TIP3     35       TIP3     H2       HT       0.417000       1.00800           0
     17456 TIP3     36       TIP3     OH2      OT      -0.834000       15.9994           0
     17457 TIP3     36       TIP3     H1       HT       0.417000       1.00800           0
     17458 TIP3     36       TIP3     H2       HT       0.417000       1.00800           0
     17459 TIP3     37       TIP3     OH2      OT      -0.834000       15.9994           0
     17460 TIP3     37       TIP3     H1       HT       0.417000       1.00800           0
     17461 TIP3     37       TIP3     H2       HT       0.417000       1.00800           0
     17462 TIP3     38       TIP3     OH2      OT      -0.834000       15.9994           0
     17463 TIP3     38       TIP3     H1       HT       0.417000       1.00800           0
     17464 TIP3     38       TIP3     H2       HT       0.417000       1.00800           0
     17465 TIP3     39       TIP3     OH2      OT      -0.834000       15.9994           0
     17466 TIP3     39       TIP3     H1       HT       0.417000       1.00800           0
     17467 TIP3     39       TIP3     H2       HT       0.417000       1.00800           0
     17468 TIP3     40       TIP3     OH2      OT      -0.834000       15.9994           0
     17469 TIP3     40       TIP3     H1       HT       0.417000       1.00800           0
     17470 TIP3     40       TIP3     H2       HT       0.417000       1.00800           0
     17471 TIP3     41       TIP3     OH2      OT      -0.834000       15.9994           0
     17472 TIP3     41       TIP3     H1       HT       0.417000       1.00800           0
     17473 TIP3     41       TIP3     H2       HT       0.417000       1.00800           0
     17474 TIP3     42       TIP3     OH2      OT      -0.834000       15.9994           0
     17475 TIP3     42       TIP3     H1       HT       0.417000       1.00800           0
     17476 TIP3     42       TIP3     H2       HT       0.417000       1.00800           0
     17477 TIP3     43       TIP3     OH2      OT      -0.834000       15.9994           0
     17478 TIP3     43       TIP3     H1       HT       0.417000       1.00800           0
     17479 TIP3     43       TIP3     H2       HT       0.417000       1.00800           0
     17480 TIP3     44       TIP3     OH2      OT      -0.834000       15.9994           0
     17481 TIP3     44       TIP3     H1       HT       0.417000       1.00800           0
     17482 TIP3     44       TIP3     H2       HT       0.417000       1.00800           0
     17483 TIP3     45       TIP3     OH2      OT      -0.834000       15.9994           0
     17484 TIP3     45       TIP3     H1       HT       0.417000       1.00800           0
     17485 TIP3     45       TIP3     H2       HT       0.417000       1.00800           0
     17486 TIP3     46       TIP3     OH2      OT      -0.834000       15.9994           0
     17487 TIP3     46       TIP3     H1       HT       0.417000       1.00800           0
     17488 TIP3     46       TIP3     H2       HT       0.417000       1.00800           0
     17489 TIP3     47       TIP3     OH2      OT      -0.834000       15.9994           0
     17490 TIP3     47       TIP3     H1       HT       0.417000       1.00800           0
     17491 TIP3     47       TIP3     H2       HT       0.417000       1.00800           0
     17492 TIP3     48       TIP3     OH2      OT      -0.834000       15.9994           0
     17493 TIP3     48       TIP3     H1       HT       0.417000       1.00800           0
     17494 TIP3     48       TIP3     H2       HT       0.417000       1.00800           0
     17495 TIP3     49       TIP3     OH2      OT      -0.834000       15.9994           0
     17496 TIP3     49       TIP3     H1       HT       0.417000       1.00800           0
     17497 TIP3     49       TIP3     H2       HT       0.417000       1.00800           0
     17498 TIP3     50       TIP3     OH2      OT      -0.834000       15.9994           0
     17499 TIP3     50       TIP3     H1       HT       0.417000       1.00800           0
     17500 TIP3     50       TIP3     H2       HT       0.417000       1.00800           0
     17501 TIP3     51       TIP3     OH2      OT      -0.834000       15.9994           0
     17502 TIP3     51       TIP3     H1       HT       0.417000       1.00800           0
     17503 TIP3     51       TIP3     H2       HT       0.417000       1.00800           0
     17504 TIP3     52       TIP3     OH2      OT      -0.834000       15.9994           0
     17505 TIP3     52       TIP3     H1       HT       0.417000       1.00800           0
     17506 TIP3     52       TIP3     H2       HT       0.417000       1.00800           0
     17507 TIP3     53       TIP3     OH2      OT      -0.834000       15.9994           0
     17508 TIP3     53       TIP3     H1       HT       0.417000       1.00800           0
     17509 TIP3     53       TIP3     H2       HT       0.417000       1.00800           0
     17510 TIP3     54       TIP3     OH2      OT      -0.834000       15.9994           0
     17511 TIP3     54       TIP3     H1       HT       0.417000       1.00800           0
     17512 TIP3     54       TIP3     H2       HT       0.417000       1.00800           0
     17513 TIP3     55       TIP3     OH2      OT      -0.834000       15.9994           0
     17514 TIP3     55       TIP3     H1       HT       0.417000       1.00800           0
     17515 TIP3     55       TIP3     H2       HT       0.417000       1.00800           0
     17516 TIP3     56       TIP3     OH2      OT      -0.834000       15.9994           0
     17517 TIP3     56       TIP3     H1       HT       0.417000       1.00800           0
     17518 TIP3     56       TIP3     H2       HT       0.417000       1.00800           0
     17519 TIP3     57       TIP3     OH2      OT      -0.834000       15.9994           0
     17520 TIP3     57       TIP3     H1       HT       0.417000       1.00800           0
     17521 TIP3     57       TIP3     H2       HT       0.417000       1.00800           0
     17522 TIP3     58       TIP3     OH2      OT      -0.834000       15.9994           0
     17523 TIP3     58       TIP3     H1       HT       0.417000       1.00800           0
     17524 TIP3     58       TIP3     H2       HT       0.417000       1.00800           0
     17525 TIP3     59       TIP3     OH2      OT      -0.834000       15.9994           0
     17526 TIP3     59       TIP3     H1       HT       0.417000       1.00800           0
     17527 TIP3     59       TIP3     H2       HT       0.417000       1.00800           0
     17528 TIP3     60       TIP3     OH2      OT      -0.834000       15.9994           0
     17529 TIP3     60       TIP3     H1       HT       0.417000       1.00800           0
     17530 TIP3     60       TIP3     H2       HT       0.417000       1.00800           0
     17531 TIP3     61       TIP3     OH2      OT      -0.834000       15.9994           0
     17532 TIP3     61       TIP3     H1       HT       0.417000       1.00800           0
     17533 TIP3     61       TIP3     H2       HT       0.417000       1.00800           0
     17534 TIP3     62       TIP3     OH2      OT      -0.834000       15.9994           0
     17535 TIP3     62       TIP3     H1       HT       0.417000       1.00800           0
     17536 TIP3     62       TIP3     H2       HT       0.417000       1.00800           0
     17537 TIP3     63       TIP3     OH2      OT      -0.834000       15.9994           0
     17538 TIP3     63       TIP3     H1       HT       0.417000       1.00800           0
     17539 TIP3     63       TIP3     H2       HT       0.417000       1.00800           0
     17540 TIP3     64       TIP3     OH2      OT      -0.834000       15.9994           0
     17541 TIP3     64       TIP3     H1       HT       0.417000       1.00800           0
     17542 TIP3     64       TIP3     H2       HT       0.417000       1.00800           0
     17543 TIP3     65       TIP3     OH2      OT      -0.834000       15.9994           0
     17544 TIP3     65       TIP3     H1       HT       0.417000       1.00800           0
     17545 TIP3     65       TIP3     H2       HT       0.417000       1.00800           0
     17546 TIP3     66       TIP3     OH2      OT      -0.834000       15.9994           0
     17547 TIP3     66       TIP3     H1       HT       0.417000       1.00800           0
     17548 TIP3     66       TIP3     H2       HT       0.417000       1.00800           0
     17549 TIP3     67       TIP3     OH2      OT      -0.834000       15.9994           0
     17550 TIP3     67       TIP3     H1       HT       0.417000       1.00800           0
     17551 TIP3     67       TIP3     H2       HT       0.417000       1.00800           0
     17552 TIP3     68       TIP3     OH2      OT      -0.834000       15.9994           0
     17553 TIP3     68       TIP3     H1       HT       0.417000       1.00800           0
     17554 TIP3     68       TIP3     H2       HT       0.417000       1.00800           0
     17555 TIP3     69       TIP3     OH2      OT      -0.834000       15.9994           0
     17556 TIP3     69       TIP3     H1       HT       0.417000       1.00800           0
     17557 TIP3     69       TIP3     H2       HT       0.417000       1.00800           0
     17558 TIP3     70       TIP3     OH2      OT      -0.834000       15.9994           0
     17559 TIP3     70       TIP3     H1       HT       0.417000       1.00800           0
     17560 TIP3     70       TIP3     H2       HT       0.417000       1.00800           0
     17561 TIP3     71       TIP3     OH2      OT      -0.834000       15.9994           0
     17562 TIP3     71       TIP3     H1       HT       0.417000       1.00800           0
     17563 TIP3     71       TIP3     H2       HT       0.417000       1.00800           0
     17564 TIP3     72       TIP3     OH2      OT      -0.834000       15.9994           0
     17565 TIP3     72       TIP3     H1       HT       0.417000       1.00800           0
     17566 TIP3     72       TIP3     H2       HT       0.417000       1.00800           0
     17567 TIP3     73       TIP3     OH2      OT      -0.834000       15.9994           0
     17568 TIP3     73       TIP3     H1       HT       0.417000       1.00800           0
     17569 TIP3     73       TIP3     H2       HT       0.417000       1.00800           0
     17570 TIP3     74       TIP3     OH2      OT      -0.834000       15.9994           0
     17571 TIP3     74       TIP3     H1       HT       0.417000       1.00800           0
     17572 TIP3     74       TIP3     H2       HT       0.417000       1.00800           0
     17573 TIP3     75       TIP3     OH2      OT      -0.834000       15.9994           0
     17574 TIP3     75       TIP3     H1       HT       0.417000       1.00800           0
     17575 TIP3     75       TIP3     H2       HT       0.417000       1.00800           0
     17576 TIP3     76       TIP3     OH2      OT      -0.834000       15.9994           0
     17577 TIP3     76       TIP3     H1       HT       0.417000       1.00800           0
     17578 TIP3     76       TIP3     H2       HT       0.417000       1.00800           0
     17579 TIP3     77       TIP3     OH2      OT      -0.834000       15.9994           0
     17580 TIP3     77       TIP3     H1       HT       0.417000       1.00800           0
     17581 TIP3     77       TIP3     H2       HT       0.417000       1.00800           0
     17582 TIP3     78       TIP3     OH2      OT      -0.834000       15.9994           0
     17583 TIP3     78       TIP3     H1       HT       0.417000       1.00800           0
     17584 TIP3     78       TIP3     H2       HT       0.417000       1.00800           0
     17585 TIP3     79       TIP3     OH2      OT      -0.834000       15.9994           0
     17586 TIP3     79       TIP3     H1       HT       0.417000       1.00800           0
     17587 TIP3     79       TIP3     H2       HT       0.417000       1.00800           0
     17588 TIP3     80       TIP3     OH2      OT      -0.834000       15.9994           0
     17589 TIP3     80       TIP3     H1       HT       0.417000       1.00800           0
     17590 TIP3     80       TIP3     H2       HT       0.417000       1.00800           0
     17591 TIP3     81       TIP3     OH2      OT      -0.834000       15.9994           0
     17592 TIP3     81       TIP3     H1       HT       0.417000       1.00800           0
     17593 TIP3     81       TIP3     H2       HT       0.417000       1.00800           0
     17594 TIP3     82       TIP3     OH2      OT      -0.834000       15.9994           0
     17595 TIP3     82       TIP3     H1       HT       0.417000       1.00800           0
     17596 TIP3     82       TIP3     H2       HT       0.417000       1.00800           0
     17597 TIP3     83       TIP3     OH2      OT      -0.834000       15.9994           0
     17598 TIP3     83       TIP3     H1       HT       0.417000       1.00800           0
     17599 TIP3     83       TIP3     H2       HT       0.417000       1.00800           0
     17600 TIP3     84       TIP3     OH2      OT      -0.834000       15.9994           0
     17601 TIP3     84       TIP3     H1       HT       0.417000       1.00800           0
     17602 TIP3     84       TIP3     H2       HT       0.417000       1.00800           0
     17603 TIP3     85       TIP3     OH2      OT      -0.834000       15.9994           0
     17604 TIP3     85       TIP3     H1       HT       0.417000       1.00800           0
     17605 TIP3     85       TIP3     H2       HT       0.417000       1.00800           0
     17606 TIP3     86       TIP3     OH2      OT      -0.834000       15.9994           0
     17607 TIP3     86       TIP3     H1       HT       0.417000       1.00800           0
     17608 TIP3     86       TIP3     H2       HT       0.417000       1.00800           0
     17609 TIP3     87       TIP3     OH2      OT      -0.834000       15.9994           0
     17610 TIP3     87       TIP3     H1       HT       0.417000       1.00800           0
     17611 TIP3     87       TIP3     H2       HT       0.417000       1.00800           0
     17612 TIP3     88       TIP3     OH2      OT      -0.834000       15.9994           0
     17613 TIP3     88       TIP3     H1       HT       0.417000       1.00800           0
     17614 TIP3     88       TIP3     H2       HT       0.417000       1.00800           0
     17615 TIP3     89       TIP3     OH2      OT      -0.834000       15.9994           0
     17616 TIP3     89       TIP3     H1       HT       0.417000       1.00800           0
     17617 TIP3     89       TIP3     H2       HT       0.417000       1.00800           0
     17618 TIP3     90       TIP3     OH2      OT      -0.834000       15.9994           0
     17619 TIP3     90       TIP3     H1       HT       0.417000       1.00800           0
     17620 TIP3     90       TIP3     H2       HT       0.417000       1.00800           0
     17621 TIP3     91       TIP3     OH2      OT      -0.834000       15.9994           0
     17622 TIP3     91       TIP3     H1       HT       0.417000       1.00800           0
     17623 TIP3     91       TIP3     H2       HT       0.417000       1.00800           0
     17624 TIP3     92       TIP3     OH2      OT      -0.834000       15.9994           0
     17625 TIP3     92       TIP3     H1       HT       0.417000       1.00800           0
     17626 TIP3     92       TIP3     H2       HT       0.417000       1.00800           0
     17627 TIP3     93       TIP3     OH2      OT      -0.834000       15.9994           0
     17628 TIP3     93       TIP3     H1       HT       0.417000       1.00800           0
     17629 TIP3     93       TIP3     H2       HT       0.417000       1.00800           0
     17630 TIP3     94       TIP3     OH2      OT      -0.834000       15.9994           0
     17631 TIP3     94       TIP3     H1       HT       0.417000       1.00800           0
     17632 TIP3     94       TIP3     H2       HT       0.417000       1.00800           0
     17633 TIP3     95       TIP3     OH2      OT      -0.834000       15.9994           0
     17634 TIP3     95       TIP3     H1       HT       0.417000       1.00800           0
     17635 TIP3     95       TIP3     H2       HT       0.417000       1.00800           0
     17636 TIP3     96       TIP3     OH2      OT      -0.834000       15.9994           0
     17637 TIP3     96       TIP3     H1       HT       0.417000       1.00800           0
     17638 TIP3     96       TIP3     H2       HT       0.417000       1.00800           0
     17639 TIP3     97       TIP3     OH2      OT      -0.834000       15.9994           0
     17640 TIP3     97       TIP3     H1       HT       0.417000       1.00800           0
     17641 TIP3     97       TIP3     H2       HT       0.417000       1.00800           0
     17642 TIP3     98       TIP3     OH2      OT      -0.834000       15.9994           0
     17643 TIP3     98       TIP3     H1       HT       0.417000       1.00800           0
     17644 TIP3     98       TIP3     H2       HT       0.417000       1.00800           0
     17645 TIP3     99       TIP3     OH2      OT      -0.834000       15.9994           0
     17646 TIP3     99       TIP3     H1       HT       0.417000       1.00800           0
     17647 TIP3     99       TIP3     H2       HT       0.417000       1.00800           0
     17648 TIP3     100      TIP3     OH2      OT      -0.834000       15.9994           0
     17649 TIP3     100      TIP3     H1       HT       0.417000       1.00800           0
     17650 TIP3     100      TIP3     H2       HT       0.417000       1.00800           0
     17651 TIP3     101      TIP3     OH2      OT      -0.834000       15.9994           0
     17652 TIP3     101      TIP3     H1       HT       0.417000       1.00800           0
     17653 TIP3     101      TIP3     H2       HT       0.417000       1.00800           0
     17654 TIP3     102      TIP3     OH2      OT      -0.834000       15.9994           0
     17655 TIP3     102      TIP3     H1       HT       0.417000       1.00800           0
     17656 TIP3     102      TIP3     H2       HT       0.417000       1.00800           0
     17657 TIP3     103      TIP3     OH2      OT      -0.834000       15.9994           0
     17658 TIP3     103      TIP3     H1       HT       0.417000       1.00800           0
     17659 TIP3     103      TIP3     H2       HT       0.417000       1.00800           0
     17660 TIP3     104      TIP3     OH2      OT      -0.834000       15.9994           0
     17661 TIP3     104      TIP3     H1       HT       0.417000       1.00800           0
     17662 TIP3     104      TIP3     H2       HT       0.417000       1.00800           0
     17663 TIP3     105      TIP3     OH2      OT      -0.834000       15.9994           0
     17664 TIP3     105      TIP3     H1       HT       0.417000       1.00800           0
     17665 TIP3     105      TIP3     H2       HT       0.417000       1.00800           0
     17666 TIP3     106      TIP3     OH2      OT      -0.834000       15.9994           0
     17667 TIP3     106      TIP3     H1       HT       0.417000       1.00800           0
     17668 TIP3     106      TIP3     H2       HT       0.417000       1.00800           0
     17669 TIP3     107      TIP3     OH2      OT      -0.834000       15.9994           0
     17670 TIP3     107      TIP3     H1       HT       0.417000       1.00800           0
     17671 TIP3     107      TIP3     H2       HT       0.417000       1.00800           0
     17672 TIP3     108      TIP3     OH2      OT      -0.834000       15.9994           0
     17673 TIP3     108      TIP3     H1       HT       0.417000       1.00800           0
     17674 TIP3     108      TIP3     H2       HT       0.417000       1.00800           0
     17675 TIP3     109      TIP3     OH2      OT      -0.834000       15.9994           0
     17676 TIP3     109      TIP3     H1       HT       0.417000       1.00800           0
     17677 TIP3     109      TIP3     H2       HT       0.417000       1.00800           0
     17678 TIP3     110      TIP3     OH2      OT      -0.834000       15.9994           0
     17679 TIP3     110      TIP3     H1       HT       0.417000       1.00800           0
     17680 TIP3     110      TIP3     H2       HT       0.417000       1.00800           0
     17681 TIP3     111      TIP3     OH2      OT      -0.834000       15.9994           0
     17682 TIP3     111      TIP3     H1       HT       0.417000       1.00800           0
     17683 TIP3     111      TIP3     H2       HT       0.417000       1.00800           0
     17684 TIP3     112      TIP3     OH2      OT      -0.834000       15.9994           0
     17685 TIP3     112      TIP3     H1       HT       0.417000       1.00800           0
     17686 TIP3     112      TIP3     H2       HT       0.417000       1.00800           0
     17687 TIP3     113      TIP3     OH2      OT      -0.834000       15.9994           0
     17688 TIP3     113      TIP3     H1       HT       0.417000       1.00800           0
     17689 TIP3     113      TIP3     H2       HT       0.417000       1.00800           0
     17690 TIP3     114      TIP3     OH2      OT      -0.834000       15.9994           0
     17691 TIP3     114      TIP3     H1       HT       0.417000       1.00800           0
     17692 TIP3     114      TIP3     H2       HT       0.417000       1.00800           0
     17693 TIP3     115      TIP3     OH2      OT      -0.834000       15.9994           0
     17694 TIP3     115      TIP3     H1       HT       0.417000       1.00800           0
     17695 TIP3     115      TIP3     H2       HT       0.417000       1.00800           0
     17696 TIP3     116      TIP3     OH2      OT      -0.834000       15.9994           0
     17697 TIP3     116      TIP3     H1       HT       0.417000       1.00800           0
     17698 TIP3     116      TIP3     H2       HT       0.417000       1.00800           0
     17699 TIP3     117      TIP3     OH2      OT      -0.834000       15.9994           0
     17700 TIP3     117      TIP3     H1       HT       0.417000       1.00800           0
     17701 TIP3     117      TIP3     H2       HT       0.417000       1.00800           0
     17702 TIP3     118      TIP3     OH2      OT      -0.834000       15.9994           0
     17703 TIP3     118      TIP3     H1       HT       0.417000       1.00800           0
     17704 TIP3     118      TIP3     H2       HT       0.417000       1.00800           0
     17705 TIP3     119      TIP3     OH2      OT      -0.834000       15.9994           0
     17706 TIP3     119      TIP3     H1       HT       0.417000       1.00800           0
     17707 TIP3     119      TIP3     H2       HT       0.417000       1.00800           0
     17708 TIP3     120      TIP3     OH2      OT      -0.834000       15.9994           0
     17709 TIP3     120      TIP3     H1       HT       0.417000       1.00800           0
     17710 TIP3     120      TIP3     H2       HT       0.417000       1.00800           0
     17711 TIP3     121      TIP3     OH2      OT      -0.834000       15.9994           0
     17712 TIP3     121      TIP3     H1       HT       0.417000       1.00800           0
     17713 TIP3     121      TIP3     H2       HT       0.417000       1.00800           0
     17714 TIP3     122      TIP3     OH2      OT      -0.834000       15.9994           0
     17715 TIP3     122      TIP3     H1       HT       0.417000       1.00800           0
     17716 TIP3     122      TIP3     H2       HT       0.417000       1.00800           0
     17717 TIP3     123      TIP3     OH2      OT      -0.834000       15.9994           0
     17718 TIP3     123      TIP3     H1       HT       0.417000       1.00800           0
     17719 TIP3     123      TIP3     H2       HT       0.417000       1.00800           0
     17720 TIP3     124      TIP3     OH2      OT      -0.834000       15.9994           0
     17721 TIP3     124      TIP3     H1       HT       0.417000       1.00800           0
     17722 TIP3     124      TIP3     H2       HT       0.417000       1.00800           0
     17723 TIP3     125      TIP3     OH2      OT      -0.834000       15.9994           0
     17724 TIP3     125      TIP3     H1       HT       0.417000       1.00800           0
     17725 TIP3     125      TIP3     H2       HT       0.417000       1.00800           0
     17726 TIP3     126      TIP3     OH2      OT      -0.834000       15.9994           0
     17727 TIP3     126      TIP3     H1       HT       0.417000       1.00800           0
     17728 TIP3     126      TIP3     H2       HT       0.417000       1.00800           0
     17729 TIP3     127      TIP3     OH2      OT      -0.834000       15.9994           0
     17730 TIP3     127      TIP3     H1       HT       0.417000       1.00800           0
     17731 TIP3     127      TIP3     H2       HT       0.417000       1.00800           0
     17732 TIP3     128      TIP3     OH2      OT      -0.834000       15.9994           0
     17733 TIP3     128      TIP3     H1       HT       0.417000       1.00800           0
     17734 TIP3     128      TIP3     H2       HT       0.417000       1.00800           0
     17735 TIP3     129      TIP3     OH2      OT      -0.834000       15.9994           0
     17736 TIP3     129      TIP3     H1       HT       0.417000       1.00800           0
     17737 TIP3     129      TIP3     H2       HT       0.417000       1.00800           0
     17738 TIP3     130      TIP3     OH2      OT      -0.834000       15.9994           0
     17739 TIP3     130      TIP3     H1       HT       0.417000       1.00800           0
     17740 TIP3     130      TIP3     H2       HT       0.417000       1.00800           0
     17741 TIP3     131      TIP3     OH2      OT      -0.834000       15.9994           0
     17742 TIP3     131      TIP3     H1       HT       0.417000       1.00800           0
     17743 TIP3     131      TIP3     H2       HT       0.417000       1.00800           0
     17744 TIP3     132      TIP3     OH2      OT      -0.834000       15.9994           0
     17745 TIP3     132      TIP3     H1       HT       0.417000       1.00800           0
     17746 TIP3     132      TIP3     H2       HT       0.417000       1.00800           0
     17747 TIP3     133      TIP3     OH2      OT      -0.834000       15.9994           0
     17748 TIP3     133      TIP3     H1       HT       0.417000       1.00800           0
     17749 TIP3     133      TIP3     H2       HT       0.417000       1.00800           0
     17750 TIP3     134      TIP3     OH2      OT      -0.834000       15.9994           0
     17751 TIP3     134      TIP3     H1       HT       0.417000       1.00800           0
     17752 TIP3     134      TIP3     H2       HT       0.417000       1.00800           0
     17753 TIP3     135      TIP3     OH2      OT      -0.834000       15.9994           0
     17754 TIP3     135      TIP3     H1       HT       0.417000       1.00800           0
     17755 TIP3     135      TIP3     H2       HT       0.417000       1.00800           0
     17756 TIP3     136      TIP3     OH2      OT      -0.834000       15.9994           0
     17757 TIP3     136      TIP3     H1       HT       0.417000       1.00800           0
     17758 TIP3     136      TIP3     H2       HT       0.417000       1.00800           0
     17759 TIP3     137      TIP3     OH2      OT      -0.834000       15.9994           0
     17760 TIP3     137      TIP3     H1       HT       0.417000       1.00800           0
     17761 TIP3     137      TIP3     H2       HT       0.417000       1.00800           0
     17762 TIP3     138      TIP3     OH2      OT      -0.834000       15.9994           0
     17763 TIP3     138      TIP3     H1       HT       0.417000       1.00800           0
     17764 TIP3     138      TIP3     H2       HT       0.417000       1.00800           0
     17765 TIP3     139      TIP3     OH2      OT      -0.834000       15.9994           0
     17766 TIP3     139      TIP3     H1       HT       0.417000       1.00800           0
     17767 TIP3     139      TIP3     H2       HT       0.417000       1.00800           0
     17768 TIP3     140      TIP3     OH2      OT      -0.834000       15.9994           0
     17769 TIP3     140      TIP3     H1       HT       0.417000       1.00800           0
     17770 TIP3     140      TIP3     H2       HT       0.417000       1.00800           0
     17771 TIP3     141      TIP3     OH2      OT      -0.834000       15.9994           0
     17772 TIP3     141      TIP3     H1       HT       0.417000       1.00800           0
     17773 TIP3     141      TIP3     H2       HT       0.417000       1.00800           0
     17774 TIP3     142      TIP3     OH2      OT      -0.834000       15.9994           0
     17775 TIP3     142      TIP3     H1       HT       0.417000       1.00800           0
     17776 TIP3     142      TIP3     H2       HT       0.417000       1.00800           0
     17777 TIP3     143      TIP3     OH2      OT      -0.834000       15.9994           0
     17778 TIP3     143      TIP3     H1       HT       0.417000       1.00800           0
     17779 TIP3     143      TIP3     H2       HT       0.417000       1.00800           0
     17780 TIP3     144      TIP3     OH2      OT      -0.834000       15.9994           0
     17781 TIP3     144      TIP3     H1       HT       0.417000       1.00800           0
     17782 TIP3     144      TIP3     H2       HT       0.417000       1.00800           0
     17783 TIP3     145      TIP3     OH2      OT      -0.834000       15.9994           0
     17784 TIP3     145      TIP3     H1       HT       0.417000       1.00800           0
     17785 TIP3     145      TIP3     H2       HT       0.417000       1.00800           0
     17786 TIP3     146      TIP3     OH2      OT      -0.834000       15.9994           0
     17787 TIP3     146      TIP3     H1       HT       0.417000       1.00800           0
     17788 TIP3     146      TIP3     H2       HT       0.417000       1.00800           0
     17789 TIP3     147      TIP3     OH2      OT      -0.834000       15.9994           0
     17790 TIP3     147      TIP3     H1       HT       0.417000       1.00800           0
     17791 TIP3     147      TIP3     H2       HT       0.417000       1.00800           0
     17792 TIP3     148      TIP3     OH2      OT      -0.834000       15.9994           0
     17793 TIP3     148      TIP3     H1       HT       0.417000       1.00800           0
     17794 TIP3     148      TIP3     H2       HT       0.417000       1.00800           0
     17795 TIP3     149      TIP3     OH2      OT      -0.834000       15.9994           0
     17796 TIP3     149      TIP3     H1       HT       0.417000       1.00800           0
     17797 TIP3     149      TIP3     H2       HT       0.417000       1.00800           0
     17798 TIP3     150      TIP3     OH2      OT      -0.834000       15.9994           0
     17799 TIP3     150      TIP3     H1       HT       0.417000       1.00800           0
     17800 TIP3     150      TIP3     H2       HT       0.417000       1.00800           0
     17801 TIP3     151      TIP3     OH2      OT      -0.834000       15.9994           0
     17802 TIP3     151      TIP3     H1       HT       0.417000       1.00800           0
     17803 TIP3     151      TIP3     H2       HT       0.417000       1.00800           0
     17804 TIP3     152      TIP3     OH2      OT      -0.834000       15.9994           0
     17805 TIP3     152      TIP3     H1       HT       0.417000       1.00800           0
     17806 TIP3     152      TIP3     H2       HT       0.417000       1.00800           0
     17807 TIP3     153      TIP3     OH2      OT      -0.834000       15.9994           0
     17808 TIP3     153      TIP3     H1       HT       0.417000       1.00800           0
     17809 TIP3     153      TIP3     H2       HT       0.417000       1.00800           0
     17810 TIP3     154      TIP3     OH2      OT      -0.834000       15.9994           0
     17811 TIP3     154      TIP3     H1       HT       0.417000       1.00800           0
     17812 TIP3     154      TIP3     H2       HT       0.417000       1.00800           0
     17813 TIP3     155      TIP3     OH2      OT      -0.834000       15.9994           0
     17814 TIP3     155      TIP3     H1       HT       0.417000       1.00800           0
     17815 TIP3     155      TIP3     H2       HT       0.417000       1.00800           0
     17816 TIP3     156      TIP3     OH2      OT      -0.834000       15.9994           0
     17817 TIP3     156      TIP3     H1       HT       0.417000       1.00800           0
     17818 TIP3     156      TIP3     H2       HT       0.417000       1.00800           0
     17819 TIP3     157      TIP3     OH2      OT      -0.834000       15.9994           0
     17820 TIP3     157      TIP3     H1       HT       0.417000       1.00800           0
     17821 TIP3     157      TIP3     H2       HT       0.417000       1.00800           0
     17822 TIP3     158      TIP3     OH2      OT      -0.834000       15.9994           0
     17823 TIP3     158      TIP3     H1       HT       0.417000       1.00800           0
     17824 TIP3     158      TIP3     H2       HT       0.417000       1.00800           0
     17825 TIP3     159      TIP3     OH2      OT      -0.834000       15.9994           0
     17826 TIP3     159      TIP3     H1       HT       0.417000       1.00800           0
     17827 TIP3     159      TIP3     H2       HT       0.417000       1.00800           0
     17828 TIP3     160      TIP3     OH2      OT      -0.834000       15.9994           0
     17829 TIP3     160      TIP3     H1       HT       0.417000       1.00800           0
     17830 TIP3     160      TIP3     H2       HT       0.417000       1.00800           0
     17831 TIP3     161      TIP3     OH2      OT      -0.834000       15.9994           0
     17832 TIP3     161      TIP3     H1       HT       0.417000       1.00800           0
     17833 TIP3     161      TIP3     H2       HT       0.417000       1.00800           0
     17834 TIP3     162      TIP3     OH2      OT      -0.834000       15.9994           0
     17835 TIP3     162      TIP3     H1       HT       0.417000       1.00800           0
     17836 TIP3     162      TIP3     H2       HT       0.417000       1.00800           0
     17837 TIP3     163      TIP3     OH2      OT      -0.834000       15.9994           0
     17838 TIP3     163      TIP3     H1       HT       0.417000       1.00800           0
     17839 TIP3     163      TIP3     H2       HT       0.417000       1.00800           0
     17840 TIP3     164      TIP3     OH2      OT      -0.834000       15.9994           0
     17841 TIP3     164      TIP3     H1       HT       0.417000       1.00800           0
     17842 TIP3     164      TIP3     H2       HT       0.417000       1.00800           0
     17843 TIP3     165      TIP3     OH2      OT      -0.834000       15.9994           0
     17844 TIP3     165      TIP3     H1       HT       0.417000       1.00800           0
     17845 TIP3     165      TIP3     H2       HT       0.417000       1.00800           0
     17846 TIP3     166      TIP3     OH2      OT      -0.834000       15.9994           0
     17847 TIP3     166      TIP3     H1       HT       0.417000       1.00800           0
     17848 TIP3     166      TIP3     H2       HT       0.417000       1.00800           0
     17849 TIP3     167      TIP3     OH2      OT      -0.834000       15.9994           0
     17850 TIP3     167      TIP3     H1       HT       0.417000       1.00800           0
     17851 TIP3     167      TIP3     H2       HT       0.417000       1.00800           0
     17852 TIP3     168      TIP3     OH2      OT      -0.834000       15.9994           0
     17853 TIP3     168      TIP3     H1       HT       0.417000       1.00800           0
     17854 TIP3     168      TIP3     H2       HT       0.417000       1.00800           0
     17855 TIP3     169      TIP3     OH2      OT      -0.834000       15.9994           0
     17856 TIP3     169      TIP3     H1       HT       0.417000       1.00800           0
     17857 TIP3     169      TIP3     H2       HT       0.417000       1.00800           0
     17858 TIP3     170      TIP3     OH2      OT      -0.834000       15.9994           0
     17859 TIP3     170      TIP3     H1       HT       0.417000       1.00800           0
     17860 TIP3     170      TIP3     H2       HT       0.417000       1.00800           0
     17861 TIP3     171      TIP3     OH2      OT      -0.834000       15.9994           0
     17862 TIP3     171      TIP3     H1       HT       0.417000       1.00800           0
     17863 TIP3     171      TIP3     H2       HT       0.417000       1.00800           0
     17864 TIP3     172      TIP3     OH2      OT      -0.834000       15.9994           0
     17865 TIP3     172      TIP3     H1       HT       0.417000       1.00800           0
     17866 TIP3     172      TIP3     H2       HT       0.417000       1.00800           0
     17867 TIP3     173      TIP3     OH2      OT      -0.834000       15.9994           0
     17868 TIP3     173      TIP3     H1       HT       0.417000       1.00800           0
     17869 TIP3     173      TIP3     H2       HT       0.417000       1.00800           0
     17870 TIP3     174      TIP3     OH2      OT      -0.834000       15.9994           0
     17871 TIP3     174      TIP3     H1       HT       0.417000       1.00800           0
     17872 TIP3     174      TIP3     H2       HT       0.417000       1.00800           0
     17873 TIP3     175      TIP3     OH2      OT      -0.834000       15.9994           0
     17874 TIP3     175      TIP3     H1       HT       0.417000       1.00800           0
     17875 TIP3     175      TIP3     H2       HT       0.417000       1.00800           0
     17876 TIP3     176      TIP3     OH2      OT      -0.834000       15.9994           0
     17877 TIP3     176      TIP3     H1       HT       0.417000       1.00800           0
     17878 TIP3     176      TIP3     H2       HT       0.417000       1.00800           0
     17879 TIP3     177      TIP3     OH2      OT      -0.834000       15.9994           0
     17880 TIP3     177      TIP3     H1       HT       0.417000       1.00800           0
     17881 TIP3     177      TIP3     H2       HT       0.417000       1.00800           0
     17882 TIP3     178      TIP3     OH2      OT      -0.834000       15.9994           0
     17883 TIP3     178      TIP3     H1       HT       0.417000       1.00800           0
     17884 TIP3     178      TIP3     H2       HT       0.417000       1.00800           0
     17885 TIP3     179      TIP3     OH2      OT      -0.834000       15.9994           0
     17886 TIP3     179      TIP3     H1       HT       0.417000       1.00800           0
     17887 TIP3     179      TIP3     H2       HT       0.417000       1.00800           0
     17888 TIP3     180      TIP3     OH2      OT      -0.834000       15.9994           0
     17889 TIP3     180      TIP3     H1       HT       0.417000       1.00800           0
     17890 TIP3     180      TIP3     H2       HT       0.417000       1.00800           0
     17891 TIP3     181      TIP3     OH2      OT      -0.834000       15.9994           0
     17892 TIP3     181      TIP3     H1       HT       0.417000       1.00800           0
     17893 TIP3     181      TIP3     H2       HT       0.417000       1.00800           0
     17894 TIP3     182      TIP3     OH2      OT      -0.834000       15.9994           0
     17895 TIP3     182      TIP3     H1       HT       0.417000       1.00800           0
     17896 TIP3     182      TIP3     H2       HT       0.417000       1.00800           0
     17897 TIP3     183      TIP3     OH2      OT      -0.834000       15.9994           0
     17898 TIP3     183      TIP3     H1       HT       0.417000       1.00800           0
     17899 TIP3     183      TIP3     H2       HT       0.417000       1.00800           0
     17900 TIP3     184      TIP3     OH2      OT      -0.834000       15.9994           0
     17901 TIP3     184      TIP3     H1       HT       0.417000       1.00800           0
     17902 TIP3     184      TIP3     H2       HT       0.417000       1.00800           0
     17903 TIP3     185      TIP3     OH2      OT      -0.834000       15.9994           0
     17904 TIP3     185      TIP3     H1       HT       0.417000       1.00800           0
     17905 TIP3     185      TIP3     H2       HT       0.417000       1.00800           0
     17906 TIP3     186      TIP3     OH2      OT      -0.834000       15.9994           0
     17907 TIP3     186      TIP3     H1       HT       0.417000       1.00800           0
     17908 TIP3     186      TIP3     H2       HT       0.417000       1.00800           0
     17909 TIP3     187      TIP3     OH2      OT      -0.834000       15.9994           0
     17910 TIP3     187      TIP3     H1       HT       0.417000       1.00800           0
     17911 TIP3     187      TIP3     H2       HT       0.417000       1.00800           0
     17912 TIP3     188      TIP3     OH2      OT      -0.834000       15.9994           0
     17913 TIP3     188      TIP3     H1       HT       0.417000       1.00800           0
     17914 TIP3     188      TIP3     H2       HT       0.417000       1.00800           0
     17915 TIP3     189      TIP3     OH2      OT      -0.834000       15.9994           0
     17916 TIP3     189      TIP3     H1       HT       0.417000       1.00800           0
     17917 TIP3     189      TIP3     H2       HT       0.417000       1.00800           0
     17918 TIP3     190      TIP3     OH2      OT      -0.834000       15.9994           0
     17919 TIP3     190      TIP3     H1       HT       0.417000       1.00800           0
     17920 TIP3     190      TIP3     H2       HT       0.417000       1.00800           0
     17921 TIP3     191      TIP3     OH2      OT      -0.834000       15.9994           0
     17922 TIP3     191      TIP3     H1       HT       0.417000       1.00800           0
     17923 TIP3     191      TIP3     H2       HT       0.417000       1.00800           0
     17924 TIP3     192      TIP3     OH2      OT      -0.834000       15.9994           0
     17925 TIP3     192      TIP3     H1       HT       0.417000       1.00800           0
     17926 TIP3     192      TIP3     H2       HT       0.417000       1.00800           0
     17927 TIP3     193      TIP3     OH2      OT      -0.834000       15.9994           0
     17928 TIP3     193      TIP3     H1       HT       0.417000       1.00800           0
     17929 TIP3     193      TIP3     H2       HT       0.417000       1.00800           0
     17930 TIP3     194      TIP3     OH2      OT      -0.834000       15.9994           0
     17931 TIP3     194      TIP3     H1       HT       0.417000       1.00800           0
     17932 TIP3     194      TIP3     H2       HT       0.417000       1.00800           0
     17933 TIP3     195      TIP3     OH2      OT      -0.834000       15.9994           0
     17934 TIP3     195      TIP3     H1       HT       0.417000       1.00800           0
     17935 TIP3     195      TIP3     H2       HT       0.417000       1.00800           0
     17936 TIP3     196      TIP3     OH2      OT      -0.834000       15.9994           0
     17937 TIP3     196      TIP3     H1       HT       0.417000       1.00800           0
     17938 TIP3     196      TIP3     H2       HT       0.417000       1.00800           0
     17939 TIP3     197      TIP3     OH2      OT      -0.834000       15.9994           0
     17940 TIP3     197      TIP3     H1       HT       0.417000       1.00800           0
     17941 TIP3     197      TIP3     H2       HT       0.417000       1.00800           0
     17942 TIP3     198      TIP3     OH2      OT      -0.834000       15.9994           0
     17943 TIP3     198      TIP3     H1       HT       0.417000       1.00800           0
     17944 TIP3     198      TIP3     H2       HT       0.417000       1.00800           0
     17945 TIP3     199      TIP3     OH2      OT      -0.834000       15.9994           0
     17946 TIP3     199      TIP3     H1       HT       0.417000       1.00800           0
     17947 TIP3     199      TIP3     H2       HT       0.417000       1.00800           0
     17948 TIP3     200      TIP3     OH2      OT      -0.834000       15.9994           0
     17949 TIP3     200      TIP3     H1       HT       0.417000       1.00800           0
     17950 TIP3     200      TIP3     H2       HT       0.417000       1.00800           0
     17951 TIP3     201      TIP3     OH2      OT      -0.834000       15.9994           0
     17952 TIP3     201      TIP3     H1       HT       0.417000       1.00800           0
     17953 TIP3     201      TIP3     H2       HT       0.417000       1.00800           0
     17954 TIP3     202      TIP3     OH2      OT      -0.834000       15.9994           0
     17955 TIP3     202      TIP3     H1       HT       0.417000       1.00800           0
     17956 TIP3     202      TIP3     H2       HT       0.417000       1.00800           0
     17957 TIP3     203      TIP3     OH2      OT      -0.834000       15.9994           0
     17958 TIP3     203      TIP3     H1       HT       0.417000       1.00800           0
     17959 TIP3     203      TIP3     H2       HT       0.417000       1.00800           0
     17960 TIP3     204      TIP3     OH2      OT      -0.834000       15.9994           0
     17961 TIP3     204      TIP3     H1       HT       0.417000       1.00800           0
     17962 TIP3     204      TIP3     H2       HT       0.417000       1.00800           0
     17963 TIP3     205      TIP3     OH2      OT      -0.834000       15.9994           0
     17964 TIP3     205      TIP3     H1       HT       0.417000       1.00800           0
     17965 TIP3     205      TIP3     H2       HT       0.417000       1.00800           0
     17966 TIP3     206      TIP3     OH2      OT      -0.834000       15.9994           0
     17967 TIP3     206      TIP3     H1       HT       0.417000       1.00800           0
     17968 TIP3     206      TIP3     H2       HT       0.417000       1.00800           0
     17969 TIP3     207      TIP3     OH2      OT      -0.834000       15.9994           0
     17970 TIP3     207      TIP3     H1       HT       0.417000       1.00800           0
     17971 TIP3     207      TIP3     H2       HT       0.417000       1.00800           0
     17972 TIP3     208      TIP3     OH2      OT      -0.834000       15.9994           0
     17973 TIP3     208      TIP3     H1       HT       0.417000       1.00800           0
     17974 TIP3     208      TIP3     H2       HT       0.417000       1.00800           0
     17975 TIP3     209      TIP3     OH2      OT      -0.834000       15.9994           0
     17976 TIP3     209      TIP3     H1       HT       0.417000       1.00800           0
     17977 TIP3     209      TIP3     H2       HT       0.417000       1.00800           0
     17978 TIP3     210      TIP3     OH2      OT      -0.834000       15.9994           0
     17979 TIP3     210      TIP3     H1       HT       0.417000       1.00800           0
     17980 TIP3     210      TIP3     H2       HT       0.417000       1.00800           0
     17981 TIP3     211      TIP3     OH2      OT      -0.834000       15.9994           0
     17982 TIP3     211      TIP3     H1       HT       0.417000       1.00800           0
     17983 TIP3     211      TIP3     H2       HT       0.417000       1.00800           0
     17984 TIP3     212      TIP3     OH2      OT      -0.834000       15.9994           0
     17985 TIP3     212      TIP3     H1       HT       0.417000       1.00800           0
     17986 TIP3     212      TIP3     H2       HT       0.417000       1.00800           0
     17987 TIP3     213      TIP3     OH2      OT      -0.834000       15.9994           0
     17988 TIP3     213      TIP3     H1       HT       0.417000       1.00800           0
     17989 TIP3     213      TIP3     H2       HT       0.417000       1.00800           0
     17990 TIP3     214      TIP3     OH2      OT      -0.834000       15.9994           0
     17991 TIP3     214      TIP3     H1       HT       0.417000       1.00800           0
     17992 TIP3     214      TIP3     H2       HT       0.417000       1.00800           0
     17993 TIP3     215      TIP3     OH2      OT      -0.834000       15.9994           0
     17994 TIP3     215      TIP3     H1       HT       0.417000       1.00800           0
     17995 TIP3     215      TIP3     H2       HT       0.417000       1.00800           0
     17996 TIP3     216      TIP3     OH2      OT      -0.834000       15.9994           0
     17997 TIP3     216      TIP3     H1       HT       0.417000       1.00800           0
     17998 TIP3     216      TIP3     H2       HT       0.417000       1.00800           0
     17999 TIP3     217      TIP3     OH2      OT      -0.834000       15.9994           0
     18000 TIP3     217      TIP3     H1       HT       0.417000       1.00800           0
     18001 TIP3     217      TIP3     H2       HT       0.417000       1.00800           0
     18002 TIP3     218      TIP3     OH2      OT      -0.834000       15.9994           0
     18003 TIP3     218      TIP3     H1       HT       0.417000       1.00800           0
     18004 TIP3     218      TIP3     H2       HT       0.417000       1.00800           0
     18005 TIP3     219      TIP3     OH2      OT      -0.834000       15.9994           0
     18006 TIP3     219      TIP3     H1       HT       0.417000       1.00800           0
     18007 TIP3     219      TIP3     H2       HT       0.417000       1.00800           0
     18008 TIP3     220      TIP3     OH2      OT      -0.834000       15.9994           0
     18009 TIP3     220      TIP3     H1       HT       0.417000       1.00800           0
     18010 TIP3     220      TIP3     H2       HT       0.417000       1.00800           0
     18011 TIP3     221      TIP3     OH2      OT      -0.834000       15.9994           0
     18012 TIP3     221      TIP3     H1       HT       0.417000       1.00800           0
     18013 TIP3     221      TIP3     H2       HT       0.417000       1.00800           0
     18014 TIP3     222      TIP3     OH2      OT      -0.834000       15.9994           0
     18015 TIP3     222      TIP3     H1       HT       0.417000       1.00800           0
     18016 TIP3     222      TIP3     H2       HT       0.417000       1.00800           0
     18017 TIP3     223      TIP3     OH2      OT      -0.834000       15.9994           0
     18018 TIP3     223      TIP3     H1       HT       0.417000       1.00800           0
     18019 TIP3     223      TIP3     H2       HT       0.417000       1.00800           0
     18020 TIP3     224      TIP3     OH2      OT      -0.834000       15.9994           0
     18021 TIP3     224      TIP3     H1       HT       0.417000       1.00800           0
     18022 TIP3     224      TIP3     H2       HT       0.417000       1.00800           0
     18023 TIP3     225      TIP3     OH2      OT      -0.834000       15.9994           0
     18024 TIP3     225      TIP3     H1       HT       0.417000       1.00800           0
     18025 TIP3     225      TIP3     H2       HT       0.417000       1.00800           0
     18026 TIP3     226      TIP3     OH2      OT      -0.834000       15.9994           0
     18027 TIP3     226      TIP3     H1       HT       0.417000       1.00800           0
     18028 TIP3     226      TIP3     H2       HT       0.417000       1.00800           0
     18029 TIP3     227      TIP3     OH2      OT      -0.834000       15.9994           0
     18030 TIP3     227      TIP3     H1       HT       0.417000       1.00800           0
     18031 TIP3     227      TIP3     H2       HT       0.417000       1.00800           0
     18032 TIP3     228      TIP3     OH2      OT      -0.834000       15.9994           0
     18033 TIP3     228      TIP3     H1       HT       0.417000       1.00800           0
     18034 TIP3     228      TIP3     H2       HT       0.417000       1.00800           0
     18035 TIP3     229      TIP3     OH2      OT      -0.834000       15.9994           0
     18036 TIP3     229      TIP3     H1       HT       0.417000       1.00800           0
     18037 TIP3     229      TIP3     H2       HT       0.417000       1.00800           0
     18038 TIP3     230      TIP3     OH2      OT      -0.834000       15.9994           0
     18039 TIP3     230      TIP3     H1       HT       0.417000       1.00800           0
     18040 TIP3     230      TIP3     H2       HT       0.417000       1.00800           0
     18041 TIP3     231      TIP3     OH2      OT      -0.834000       15.9994           0
     18042 TIP3     231      TIP3     H1       HT       0.417000       1.00800           0
     18043 TIP3     231      TIP3     H2       HT       0.417000       1.00800           0
     18044 TIP3     232      TIP3     OH2      OT      -0.834000       15.9994           0
     18045 TIP3     232      TIP3     H1       HT       0.417000       1.00800           0
     18046 TIP3     232      TIP3     H2       HT       0.417000       1.00800           0
     18047 TIP3     233      TIP3     OH2      OT      -0.834000       15.9994           0
     18048 TIP3     233      TIP3     H1       HT       0.417000       1.00800           0
     18049 TIP3     233      TIP3     H2       HT       0.417000       1.00800           0
     18050 TIP3     234      TIP3     OH2      OT      -0.834000       15.9994           0
     18051 TIP3     234      TIP3     H1       HT       0.417000       1.00800           0
     18052 TIP3     234      TIP3     H2       HT       0.417000       1.00800           0
     18053 TIP3     235      TIP3     OH2      OT      -0.834000       15.9994           0
     18054 TIP3     235      TIP3     H1       HT       0.417000       1.00800           0
     18055 TIP3     235      TIP3     H2       HT       0.417000       1.00800           0
     18056 TIP3     236      TIP3     OH2      OT      -0.834000       15.9994           0
     18057 TIP3     236      TIP3     H1       HT       0.417000       1.00800           0
     18058 TIP3     236      TIP3     H2       HT       0.417000       1.00800           0
     18059 TIP3     237      TIP3     OH2      OT      -0.834000       15.9994           0
     18060 TIP3     237      TIP3     H1       HT       0.417000       1.00800           0
     18061 TIP3     237      TIP3     H2       HT       0.417000       1.00800           0
     18062 TIP3     238      TIP3     OH2      OT      -0.834000       15.9994           0
     18063 TIP3     238      TIP3     H1       HT       0.417000       1.00800           0
     18064 TIP3     238      TIP3     H2       HT       0.417000       1.00800           0
     18065 TIP3     239      TIP3     OH2      OT      -0.834000       15.9994           0
     18066 TIP3     239      TIP3     H1       HT       0.417000       1.00800           0
     18067 TIP3     239      TIP3     H2       HT       0.417000       1.00800           0
     18068 TIP3     240      TIP3     OH2      OT      -0.834000       15.9994           0
     18069 TIP3     240      TIP3     H1       HT       0.417000       1.00800           0
     18070 TIP3     240      TIP3     H2       HT       0.417000       1.00800           0
     18071 TIP3     241      TIP3     OH2      OT      -0.834000       15.9994           0
     18072 TIP3     241      TIP3     H1       HT       0.417000       1.00800           0
     18073 TIP3     241      TIP3     H2       HT       0.417000       1.00800           0
     18074 TIP3     242      TIP3     OH2      OT      -0.834000       15.9994           0
     18075 TIP3     242      TIP3     H1       HT       0.417000       1.00800           0
     18076 TIP3     242      TIP3     H2       HT       0.417000       1.00800           0
     18077 TIP3     243      TIP3     OH2      OT      -0.834000       15.9994           0
     18078 TIP3     243      TIP3     H1       HT       0.417000       1.00800           0
     18079 TIP3     243      TIP3     H2       HT       0.417000       1.00800           0
     18080 TIP3     244      TIP3     OH2      OT      -0.834000       15.9994           0
     18081 TIP3     244      TIP3     H1       HT       0.417000       1.00800           0
     18082 TIP3     244      TIP3     H2       HT       0.417000       1.00800           0
     18083 TIP3     245      TIP3     OH2      OT      -0.834000       15.9994           0
     18084 TIP3     245      TIP3     H1       HT       0.417000       1.00800           0
     18085 TIP3     245      TIP3     H2       HT       0.417000       1.00800           0
     18086 TIP3     246      TIP3     OH2      OT      -0.834000       15.9994           0
     18087 TIP3     246      TIP3     H1       HT       0.417000       1.00800           0
     18088 TIP3     246      TIP3     H2       HT       0.417000       1.00800           0
     18089 TIP3     247      TIP3     OH2      OT      -0.834000       15.9994           0
     18090 TIP3     247      TIP3     H1       HT       0.417000       1.00800           0
     18091 TIP3     247      TIP3     H2       HT       0.417000       1.00800           0
     18092 TIP3     248      TIP3     OH2      OT      -0.834000       15.9994           0
     18093 TIP3     248      TIP3     H1       HT       0.417000       1.00800           0
     18094 TIP3     248      TIP3     H2       HT       0.417000       1.00800           0
     18095 TIP3     249      TIP3     OH2      OT      -0.834000       15.9994           0
     18096 TIP3     249      TIP3     H1       HT       0.417000       1.00800           0
     18097 TIP3     249      TIP3     H2       HT       0.417000       1.00800           0
     18098 TIP3     250      TIP3     OH2      OT      -0.834000       15.9994           0
     18099 TIP3     250      TIP3     H1       HT       0.417000       1.00800           0
     18100 TIP3     250      TIP3     H2       HT       0.417000       1.00800           0
     18101 TIP3     251      TIP3     OH2      OT      -0.834000       15.9994           0
     18102 TIP3     251      TIP3     H1       HT       0.417000       1.00800           0
     18103 TIP3     251      TIP3     H2       HT       0.417000       1.00800           0
     18104 TIP3     252      TIP3     OH2      OT      -0.834000       15.9994           0
     18105 TIP3     252      TIP3     H1       HT       0.417000       1.00800           0
     18106 TIP3     252      TIP3     H2       HT       0.417000       1.00800           0
     18107 TIP3     253      TIP3     OH2      OT      -0.834000       15.9994           0
     18108 TIP3     253      TIP3     H1       HT       0.417000       1.00800           0
     18109 TIP3     253      TIP3     H2       HT       0.417000       1.00800           0
     18110 TIP3     254      TIP3     OH2      OT      -0.834000       15.9994           0
     18111 TIP3     254      TIP3     H1       HT       0.417000       1.00800           0
     18112 TIP3     254      TIP3     H2       HT       0.417000       1.00800           0
     18113 TIP3     255      TIP3     OH2      OT      -0.834000       15.9994           0
     18114 TIP3     255      TIP3     H1       HT       0.417000       1.00800           0
     18115 TIP3     255      TIP3     H2       HT       0.417000       1.00800           0
     18116 TIP3     256      TIP3     OH2      OT      -0.834000       15.9994           0
     18117 TIP3     256      TIP3     H1       HT       0.417000       1.00800           0
     18118 TIP3     256      TIP3     H2       HT       0.417000       1.00800           0
     18119 TIP3     257      TIP3     OH2      OT      -0.834000       15.9994           0
     18120 TIP3     257      TIP3     H1       HT       0.417000       1.00800           0
     18121 TIP3     257      TIP3     H2       HT       0.417000       1.00800           0
     18122 TIP3     258      TIP3     OH2      OT      -0.834000       15.9994           0
     18123 TIP3     258      TIP3     H1       HT       0.417000       1.00800           0
     18124 TIP3     258      TIP3     H2       HT       0.417000       1.00800           0
     18125 TIP3     259      TIP3     OH2      OT      -0.834000       15.9994           0
     18126 TIP3     259      TIP3     H1       HT       0.417000       1.00800           0
     18127 TIP3     259      TIP3     H2       HT       0.417000       1.00800           0
     18128 TIP3     260      TIP3     OH2      OT      -0.834000       15.9994           0
     18129 TIP3     260      TIP3     H1       HT       0.417000       1.00800           0
     18130 TIP3     260      TIP3     H2       HT       0.417000       1.00800           0
     18131 TIP3     261      TIP3     OH2      OT      -0.834000       15.9994           0
     18132 TIP3     261      TIP3     H1       HT       0.417000       1.00800           0
     18133 TIP3     261      TIP3     H2       HT       0.417000       1.00800           0
     18134 TIP3     262      TIP3     OH2      OT      -0.834000       15.9994           0
     18135 TIP3     262      TIP3     H1       HT       0.417000       1.00800           0
     18136 TIP3     262      TIP3     H2       HT       0.417000       1.00800           0
     18137 TIP3     263      TIP3     OH2      OT      -0.834000       15.9994           0
     18138 TIP3     263      TIP3     H1       HT       0.417000       1.00800           0
     18139 TIP3     263      TIP3     H2       HT       0.417000       1.00800           0
     18140 TIP3     264      TIP3     OH2      OT      -0.834000       15.9994           0
     18141 TIP3     264      TIP3     H1       HT       0.417000       1.00800           0
     18142 TIP3     264      TIP3     H2       HT       0.417000       1.00800           0
     18143 TIP3     265      TIP3     OH2      OT      -0.834000       15.9994           0
     18144 TIP3     265      TIP3     H1       HT       0.417000       1.00800           0
     18145 TIP3     265      TIP3     H2       HT       0.417000       1.00800           0
     18146 TIP3     266      TIP3     OH2      OT      -0.834000       15.9994           0
     18147 TIP3     266      TIP3     H1       HT       0.417000       1.00800           0
     18148 TIP3     266      TIP3     H2       HT       0.417000       1.00800           0
     18149 TIP3     267      TIP3     OH2      OT      -0.834000       15.9994           0
     18150 TIP3     267      TIP3     H1       HT       0.417000       1.00800           0
     18151 TIP3     267      TIP3     H2       HT       0.417000       1.00800           0
     18152 TIP3     268      TIP3     OH2      OT      -0.834000       15.9994           0
     18153 TIP3     268      TIP3     H1       HT       0.417000       1.00800           0
     18154 TIP3     268      TIP3     H2       HT       0.417000       1.00800           0
     18155 TIP3     269      TIP3     OH2      OT      -0.834000       15.9994           0
     18156 TIP3     269      TIP3     H1       HT       0.417000       1.00800           0
     18157 TIP3     269      TIP3     H2       HT       0.417000       1.00800           0
     18158 TIP3     270      TIP3     OH2      OT      -0.834000       15.9994           0
     18159 TIP3     270      TIP3     H1       HT       0.417000       1.00800           0
     18160 TIP3     270      TIP3     H2       HT       0.417000       1.00800           0
     18161 TIP3     271      TIP3     OH2      OT      -0.834000       15.9994           0
     18162 TIP3     271      TIP3     H1       HT       0.417000       1.00800           0
     18163 TIP3     271      TIP3     H2       HT       0.417000       1.00800           0
     18164 TIP3     272      TIP3     OH2      OT      -0.834000       15.9994           0
     18165 TIP3     272      TIP3     H1       HT       0.417000       1.00800           0
     18166 TIP3     272      TIP3     H2       HT       0.417000       1.00800           0
     18167 TIP3     273      TIP3     OH2      OT      -0.834000       15.9994           0
     18168 TIP3     273      TIP3     H1       HT       0.417000       1.00800           0
     18169 TIP3     273      TIP3     H2       HT       0.417000       1.00800           0
     18170 TIP3     274      TIP3     OH2      OT      -0.834000       15.9994           0
     18171 TIP3     274      TIP3     H1       HT       0.417000       1.00800           0
     18172 TIP3     274      TIP3     H2       HT       0.417000       1.00800           0
     18173 TIP3     275      TIP3     OH2      OT      -0.834000       15.9994           0
     18174 TIP3     275      TIP3     H1       HT       0.417000       1.00800           0
     18175 TIP3     275      TIP3     H2       HT       0.417000       1.00800           0
     18176 TIP3     276      TIP3     OH2      OT      -0.834000       15.9994           0
     18177 TIP3     276      TIP3     H1       HT       0.417000       1.00800           0
     18178 TIP3     276      TIP3     H2       HT       0.417000       1.00800           0
     18179 TIP3     277      TIP3     OH2      OT      -0.834000       15.9994           0
     18180 TIP3     277      TIP3     H1       HT       0.417000       1.00800           0
     18181 TIP3     277      TIP3     H2       HT       0.417000       1.00800           0
     18182 TIP3     278      TIP3     OH2      OT      -0.834000       15.9994           0
     18183 TIP3     278      TIP3     H1       HT       0.417000       1.00800           0
     18184 TIP3     278      TIP3     H2       HT       0.417000       1.00800           0
     18185 TIP3     279      TIP3     OH2      OT      -0.834000       15.9994           0
     18186 TIP3     279      TIP3     H1       HT       0.417000       1.00800           0
     18187 TIP3     279      TIP3     H2       HT       0.417000       1.00800           0
     18188 TIP3     280      TIP3     OH2      OT      -0.834000       15.9994           0
     18189 TIP3     280      TIP3     H1       HT       0.417000       1.00800           0
     18190 TIP3     280      TIP3     H2       HT       0.417000       1.00800           0
     18191 TIP3     281      TIP3     OH2      OT      -0.834000       15.9994           0
     18192 TIP3     281      TIP3     H1       HT       0.417000       1.00800           0
     18193 TIP3     281      TIP3     H2       HT       0.417000       1.00800           0
     18194 TIP3     282      TIP3     OH2      OT      -0.834000       15.9994           0
     18195 TIP3     282      TIP3     H1       HT       0.417000       1.00800           0
     18196 TIP3     282      TIP3     H2       HT       0.417000       1.00800           0
     18197 TIP3     283      TIP3     OH2      OT      -0.834000       15.9994           0
     18198 TIP3     283      TIP3     H1       HT       0.417000       1.00800           0
     18199 TIP3     283      TIP3     H2       HT       0.417000       1.00800           0
     18200 TIP3     284      TIP3     OH2      OT      -0.834000       15.9994           0
     18201 TIP3     284      TIP3     H1       HT       0.417000       1.00800           0
     18202 TIP3     284      TIP3     H2       HT       0.417000       1.00800           0
     18203 TIP3     285      TIP3     OH2      OT      -0.834000       15.9994           0
     18204 TIP3     285      TIP3     H1       HT       0.417000       1.00800           0
     18205 TIP3     285      TIP3     H2       HT       0.417000       1.00800           0
     18206 TIP3     286      TIP3     OH2      OT      -0.834000       15.9994           0
     18207 TIP3     286      TIP3     H1       HT       0.417000       1.00800           0
     18208 TIP3     286      TIP3     H2       HT       0.417000       1.00800           0
     18209 TIP3     287      TIP3     OH2      OT      -0.834000       15.9994           0
     18210 TIP3     287      TIP3     H1       HT       0.417000       1.00800           0
     18211 TIP3     287      TIP3     H2       HT       0.417000       1.00800           0
     18212 TIP3     288      TIP3     OH2      OT      -0.834000       15.9994           0
     18213 TIP3     288      TIP3     H1       HT       0.417000       1.00800           0
     18214 TIP3     288      TIP3     H2       HT       0.417000       1.00800           0
     18215 TIP3     289      TIP3     OH2      OT      -0.834000       15.9994           0
     18216 TIP3     289      TIP3     H1       HT       0.417000       1.00800           0
     18217 TIP3     289      TIP3     H2       HT       0.417000       1.00800           0
     18218 TIP3     290      TIP3     OH2      OT      -0.834000       15.9994           0
     18219 TIP3     290      TIP3     H1       HT       0.417000       1.00800           0
     18220 TIP3     290      TIP3     H2       HT       0.417000       1.00800           0
     18221 TIP3     291      TIP3     OH2      OT      -0.834000       15.9994           0
     18222 TIP3     291      TIP3     H1       HT       0.417000       1.00800           0
     18223 TIP3     291      TIP3     H2       HT       0.417000       1.00800           0
     18224 TIP3     292      TIP3     OH2      OT      -0.834000       15.9994           0
     18225 TIP3     292      TIP3     H1       HT       0.417000       1.00800           0
     18226 TIP3     292      TIP3     H2       HT       0.417000       1.00800           0
     18227 TIP3     293      TIP3     OH2      OT      -0.834000       15.9994           0
     18228 TIP3     293      TIP3     H1       HT       0.417000       1.00800           0
     18229 TIP3     293      TIP3     H2       HT       0.417000       1.00800           0
     18230 TIP3     294      TIP3     OH2      OT      -0.834000       15.9994           0
     18231 TIP3     294      TIP3     H1       HT       0.417000       1.00800           0
     18232 TIP3     294      TIP3     H2       HT       0.417000       1.00800           0
     18233 TIP3     295      TIP3     OH2      OT      -0.834000       15.9994           0
     18234 TIP3     295      TIP3     H1       HT       0.417000       1.00800           0
     18235 TIP3     295      TIP3     H2       HT       0.417000       1.00800           0
     18236 TIP3     296      TIP3     OH2      OT      -0.834000       15.9994           0
     18237 TIP3     296      TIP3     H1       HT       0.417000       1.00800           0
     18238 TIP3     296      TIP3     H2       HT       0.417000       1.00800           0
     18239 TIP3     297      TIP3     OH2      OT      -0.834000       15.9994           0
     18240 TIP3     297      TIP3     H1       HT       0.417000       1.00800           0
     18241 TIP3     297      TIP3     H2       HT       0.417000       1.00800           0
     18242 TIP3     298      TIP3     OH2      OT      -0.834000       15.9994           0
     18243 TIP3     298      TIP3     H1       HT       0.417000       1.00800           0
     18244 TIP3     298      TIP3     H2       HT       0.417000       1.00800           0
     18245 TIP3     299      TIP3     OH2      OT      -0.834000       15.9994           0
     18246 TIP3     299      TIP3     H1       HT       0.417000       1.00800           0
     18247 TIP3     299      TIP3     H2       HT       0.417000       1.00800           0
     18248 TIP3     300      TIP3     OH2      OT      -0.834000       15.9994           0
     18249 TIP3     300      TIP3     H1       HT       0.417000       1.00800           0
     18250 TIP3     300      TIP3     H2       HT       0.417000       1.00800           0
     18251 TIP3     301      TIP3     OH2      OT      -0.834000       15.9994           0
     18252 TIP3     301      TIP3     H1       HT       0.417000       1.00800           0
     18253 TIP3     301      TIP3     H2       HT       0.417000       1.00800           0
     18254 TIP3     302      TIP3     OH2      OT      -0.834000       15.9994           0
     18255 TIP3     302      TIP3     H1       HT       0.417000       1.00800           0
     18256 TIP3     302      TIP3     H2       HT       0.417000       1.00800           0
     18257 TIP3     303      TIP3     OH2      OT      -0.834000       15.9994           0
     18258 TIP3     303      TIP3     H1       HT       0.417000       1.00800           0
     18259 TIP3     303      TIP3     H2       HT       0.417000       1.00800           0
     18260 TIP3     304      TIP3     OH2      OT      -0.834000       15.9994           0
     18261 TIP3     304      TIP3     H1       HT       0.417000       1.00800           0
     18262 TIP3     304      TIP3     H2       HT       0.417000       1.00800           0
     18263 TIP3     305      TIP3     OH2      OT      -0.834000       15.9994           0
     18264 TIP3     305      TIP3     H1       HT       0.417000       1.00800           0
     18265 TIP3     305      TIP3     H2       HT       0.417000       1.00800           0
     18266 TIP3     306      TIP3     OH2      OT      -0.834000       15.9994           0
     18267 TIP3     306      TIP3     H1       HT       0.417000       1.00800           0
     18268 TIP3     306      TIP3     H2       HT       0.417000       1.00800           0
     18269 TIP3     307      TIP3     OH2      OT      -0.834000       15.9994           0
     18270 TIP3     307      TIP3     H1       HT       0.417000       1.00800           0
     18271 TIP3     307      TIP3     H2       HT       0.417000       1.00800           0
     18272 TIP3     308      TIP3     OH2      OT      -0.834000       15.9994           0
     18273 TIP3     308      TIP3     H1       HT       0.417000       1.00800           0
     18274 TIP3     308      TIP3     H2       HT       0.417000       1.00800           0
     18275 TIP3     309      TIP3     OH2      OT      -0.834000       15.9994           0
     18276 TIP3     309      TIP3     H1       HT       0.417000       1.00800           0
     18277 TIP3     309      TIP3     H2       HT       0.417000       1.00800           0
     18278 TIP3     310      TIP3     OH2      OT      -0.834000       15.9994           0
     18279 TIP3     310      TIP3     H1       HT       0.417000       1.00800           0
     18280 TIP3     310      TIP3     H2       HT       0.417000       1.00800           0
     18281 TIP3     311      TIP3     OH2      OT      -0.834000       15.9994           0
     18282 TIP3     311      TIP3     H1       HT       0.417000       1.00800           0
     18283 TIP3     311      TIP3     H2       HT       0.417000       1.00800           0
     18284 TIP3     312      TIP3     OH2      OT      -0.834000       15.9994           0
     18285 TIP3     312      TIP3     H1       HT       0.417000       1.00800           0
     18286 TIP3     312      TIP3     H2       HT       0.417000       1.00800           0
     18287 TIP3     313      TIP3     OH2      OT      -0.834000       15.9994           0
     18288 TIP3     313      TIP3     H1       HT       0.417000       1.00800           0
     18289 TIP3     313      TIP3     H2       HT       0.417000       1.00800           0
     18290 TIP3     314      TIP3     OH2      OT      -0.834000       15.9994           0
     18291 TIP3     314      TIP3     H1       HT       0.417000       1.00800           0
     18292 TIP3     314      TIP3     H2       HT       0.417000       1.00800           0
     18293 TIP3     315      TIP3     OH2      OT      -0.834000       15.9994           0
     18294 TIP3     315      TIP3     H1       HT       0.417000       1.00800           0
     18295 TIP3     315      TIP3     H2       HT       0.417000       1.00800           0
     18296 TIP3     316      TIP3     OH2      OT      -0.834000       15.9994           0
     18297 TIP3     316      TIP3     H1       HT       0.417000       1.00800           0
     18298 TIP3     316      TIP3     H2       HT       0.417000       1.00800           0
     18299 TIP3     317      TIP3     OH2      OT      -0.834000       15.9994           0
     18300 TIP3     317      TIP3     H1       HT       0.417000       1.00800           0
     18301 TIP3     317      TIP3     H2       HT       0.417000       1.00800           0
     18302 TIP3     318      TIP3     OH2      OT      -0.834000       15.9994           0
     18303 TIP3     318      TIP3     H1       HT       0.417000       1.00800           0
     18304 TIP3     318      TIP3     H2       HT       0.417000       1.00800           0
     18305 TIP3     319      TIP3     OH2      OT      -0.834000       15.9994           0
     18306 TIP3     319      TIP3     H1       HT       0.417000       1.00800           0
     18307 TIP3     319      TIP3     H2       HT       0.417000       1.00800           0
     18308 TIP3     320      TIP3     OH2      OT      -0.834000       15.9994           0
     18309 TIP3     320      TIP3     H1       HT       0.417000       1.00800           0
     18310 TIP3     320      TIP3     H2       HT       0.417000       1.00800           0
     18311 TIP3     321      TIP3     OH2      OT      -0.834000       15.9994           0
     18312 TIP3     321      TIP3     H1       HT       0.417000       1.00800           0
     18313 TIP3     321      TIP3     H2       HT       0.417000       1.00800           0
     18314 TIP3     322      TIP3     OH2      OT      -0.834000       15.9994           0
     18315 TIP3     322      TIP3     H1       HT       0.417000       1.00800           0
     18316 TIP3     322      TIP3     H2       HT       0.417000       1.00800           0
     18317 TIP3     323      TIP3     OH2      OT      -0.834000       15.9994           0
     18318 TIP3     323      TIP3     H1       HT       0.417000       1.00800           0
     18319 TIP3     323      TIP3     H2       HT       0.417000       1.00800           0
     18320 TIP3     324      TIP3     OH2      OT      -0.834000       15.9994           0
     18321 TIP3     324      TIP3     H1       HT       0.417000       1.00800           0
     18322 TIP3     324      TIP3     H2       HT       0.417000       1.00800           0
     18323 TIP3     325      TIP3     OH2      OT      -0.834000       15.9994           0
     18324 TIP3     325      TIP3     H1       HT       0.417000       1.00800           0
     18325 TIP3     325      TIP3     H2       HT       0.417000       1.00800           0
     18326 TIP3     326      TIP3     OH2      OT      -0.834000       15.9994           0
     18327 TIP3     326      TIP3     H1       HT       0.417000       1.00800           0
     18328 TIP3     326      TIP3     H2       HT       0.417000       1.00800           0
     18329 TIP3     327      TIP3     OH2      OT      -0.834000       15.9994           0
     18330 TIP3     327      TIP3     H1       HT       0.417000       1.00800           0
     18331 TIP3     327      TIP3     H2       HT       0.417000       1.00800           0
     18332 TIP3     328      TIP3     OH2      OT      -0.834000       15.9994           0
     18333 TIP3     328      TIP3     H1       HT       0.417000       1.00800           0
     18334 TIP3     328      TIP3     H2       HT       0.417000       1.00800           0
     18335 TIP3     329      TIP3     OH2      OT      -0.834000       15.9994           0
     18336 TIP3     329      TIP3     H1       HT       0.417000       1.00800           0
     18337 TIP3     329      TIP3     H2       HT       0.417000       1.00800           0
     18338 TIP3     330      TIP3     OH2      OT      -0.834000       15.9994           0
     18339 TIP3     330      TIP3     H1       HT       0.417000       1.00800           0
     18340 TIP3     330      TIP3     H2       HT       0.417000       1.00800           0
     18341 TIP3     331      TIP3     OH2      OT      -0.834000       15.9994           0
     18342 TIP3     331      TIP3     H1       HT       0.417000       1.00800           0
     18343 TIP3     331      TIP3     H2       HT       0.417000       1.00800           0
     18344 TIP3     332      TIP3     OH2      OT      -0.834000       15.9994           0
     18345 TIP3     332      TIP3     H1       HT       0.417000       1.00800           0
     18346 TIP3     332      TIP3     H2       HT       0.417000       1.00800           0
     18347 TIP3     333      TIP3     OH2      OT      -0.834000       15.9994           0
     18348 TIP3     333      TIP3     H1       HT       0.417000       1.00800           0
     18349 TIP3     333      TIP3     H2       HT       0.417000       1.00800           0
     18350 TIP3     334      TIP3     OH2      OT      -0.834000       15.9994           0
     18351 TIP3     334      TIP3     H1       HT       0.417000       1.00800           0
     18352 TIP3     334      TIP3     H2       HT       0.417000       1.00800           0
     18353 TIP3     335      TIP3     OH2      OT      -0.834000       15.9994           0
     18354 TIP3     335      TIP3     H1       HT       0.417000       1.00800           0
     18355 TIP3     335      TIP3     H2       HT       0.417000       1.00800           0
     18356 TIP3     336      TIP3     OH2      OT      -0.834000       15.9994           0
     18357 TIP3     336      TIP3     H1       HT       0.417000       1.00800           0
     18358 TIP3     336      TIP3     H2       HT       0.417000       1.00800           0
     18359 TIP3     337      TIP3     OH2      OT      -0.834000       15.9994           0
     18360 TIP3     337      TIP3     H1       HT       0.417000       1.00800           0
     18361 TIP3     337      TIP3     H2       HT       0.417000       1.00800           0
     18362 TIP3     338      TIP3     OH2      OT      -0.834000       15.9994           0
     18363 TIP3     338      TIP3     H1       HT       0.417000       1.00800           0
     18364 TIP3     338      TIP3     H2       HT       0.417000       1.00800           0
     18365 TIP3     339      TIP3     OH2      OT      -0.834000       15.9994           0
     18366 TIP3     339      TIP3     H1       HT       0.417000       1.00800           0
     18367 TIP3     339      TIP3     H2       HT       0.417000       1.00800           0
     18368 TIP3     340      TIP3     OH2      OT      -0.834000       15.9994           0
     18369 TIP3     340      TIP3     H1       HT       0.417000       1.00800           0
     18370 TIP3     340      TIP3     H2       HT       0.417000       1.00800           0
     18371 TIP3     341      TIP3     OH2      OT      -0.834000       15.9994           0
     18372 TIP3     341      TIP3     H1       HT       0.417000       1.00800           0
     18373 TIP3     341      TIP3     H2       HT       0.417000       1.00800           0
     18374 TIP3     342      TIP3     OH2      OT      -0.834000       15.9994           0
     18375 TIP3     342      TIP3     H1       HT       0.417000       1.00800           0
     18376 TIP3     342      TIP3     H2       HT       0.417000       1.00800           0
     18377 TIP3     343      TIP3     OH2      OT      -0.834000       15.9994           0
     18378 TIP3     343      TIP3     H1       HT       0.417000       1.00800           0
     18379 TIP3     343      TIP3     H2       HT       0.417000       1.00800           0
     18380 TIP3     344      TIP3     OH2      OT      -0.834000       15.9994           0
     18381 TIP3     344      TIP3     H1       HT       0.417000       1.00800           0
     18382 TIP3     344      TIP3     H2       HT       0.417000       1.00800           0
     18383 TIP3     345      TIP3     OH2      OT      -0.834000       15.9994           0
     18384 TIP3     345      TIP3     H1       HT       0.417000       1.00800           0
     18385 TIP3     345      TIP3     H2       HT       0.417000       1.00800           0
     18386 TIP3     346      TIP3     OH2      OT      -0.834000       15.9994           0
     18387 TIP3     346      TIP3     H1       HT       0.417000       1.00800           0
     18388 TIP3     346      TIP3     H2       HT       0.417000       1.00800           0
     18389 TIP3     347      TIP3     OH2      OT      -0.834000       15.9994           0
     18390 TIP3     347      TIP3     H1       HT       0.417000       1.00800           0
     18391 TIP3     347      TIP3     H2       HT       0.417000       1.00800           0
     18392 TIP3     348      TIP3     OH2      OT      -0.834000       15.9994           0
     18393 TIP3     348      TIP3     H1       HT       0.417000       1.00800           0
     18394 TIP3     348      TIP3     H2       HT       0.417000       1.00800           0
     18395 TIP3     349      TIP3     OH2      OT      -0.834000       15.9994           0
     18396 TIP3     349      TIP3     H1       HT       0.417000       1.00800           0
     18397 TIP3     349      TIP3     H2       HT       0.417000       1.00800           0
     18398 TIP3     350      TIP3     OH2      OT      -0.834000       15.9994           0
     18399 TIP3     350      TIP3     H1       HT       0.417000       1.00800           0
     18400 TIP3     350      TIP3     H2       HT       0.417000       1.00800           0
     18401 TIP3     351      TIP3     OH2      OT      -0.834000       15.9994           0
     18402 TIP3     351      TIP3     H1       HT       0.417000       1.00800           0
     18403 TIP3     351      TIP3     H2       HT       0.417000       1.00800           0
     18404 TIP3     352      TIP3     OH2      OT      -0.834000       15.9994           0
     18405 TIP3     352      TIP3     H1       HT       0.417000       1.00800           0
     18406 TIP3     352      TIP3     H2       HT       0.417000       1.00800           0
     18407 TIP3     353      TIP3     OH2      OT      -0.834000       15.9994           0
     18408 TIP3     353      TIP3     H1       HT       0.417000       1.00800           0
     18409 TIP3     353      TIP3     H2       HT       0.417000       1.00800           0
     18410 TIP3     354      TIP3     OH2      OT      -0.834000       15.9994           0
     18411 TIP3     354      TIP3     H1       HT       0.417000       1.00800           0
     18412 TIP3     354      TIP3     H2       HT       0.417000       1.00800           0
     18413 TIP3     355      TIP3     OH2      OT      -0.834000       15.9994           0
     18414 TIP3     355      TIP3     H1       HT       0.417000       1.00800           0
     18415 TIP3     355      TIP3     H2       HT       0.417000       1.00800           0
     18416 TIP3     356      TIP3     OH2      OT      -0.834000       15.9994           0
     18417 TIP3     356      TIP3     H1       HT       0.417000       1.00800           0
     18418 TIP3     356      TIP3     H2       HT       0.417000       1.00800           0
     18419 TIP3     357      TIP3     OH2      OT      -0.834000       15.9994           0
     18420 TIP3     357      TIP3     H1       HT       0.417000       1.00800           0
     18421 TIP3     357      TIP3     H2       HT       0.417000       1.00800           0
     18422 TIP3     358      TIP3     OH2      OT      -0.834000       15.9994           0
     18423 TIP3     358      TIP3     H1       HT       0.417000       1.00800           0
     18424 TIP3     358      TIP3     H2       HT       0.417000       1.00800           0
     18425 TIP3     359      TIP3     OH2      OT      -0.834000       15.9994           0
     18426 TIP3     359      TIP3     H1       HT       0.417000       1.00800           0
     18427 TIP3     359      TIP3     H2       HT       0.417000       1.00800           0
     18428 TIP3     360      TIP3     OH2      OT      -0.834000       15.9994           0
     18429 TIP3     360      TIP3     H1       HT       0.417000       1.00800           0
     18430 TIP3     360      TIP3     H2       HT       0.417000       1.00800           0
     18431 TIP3     361      TIP3     OH2      OT      -0.834000       15.9994           0
     18432 TIP3     361      TIP3     H1       HT       0.417000       1.00800           0
     18433 TIP3     361      TIP3     H2       HT       0.417000       1.00800           0
     18434 TIP3     362      TIP3     OH2      OT      -0.834000       15.9994           0
     18435 TIP3     362      TIP3     H1       HT       0.417000       1.00800           0
     18436 TIP3     362      TIP3     H2       HT       0.417000       1.00800           0
     18437 TIP3     363      TIP3     OH2      OT      -0.834000       15.9994           0
     18438 TIP3     363      TIP3     H1       HT       0.417000       1.00800           0
     18439 TIP3     363      TIP3     H2       HT       0.417000       1.00800           0
     18440 TIP3     364      TIP3     OH2      OT      -0.834000       15.9994           0
     18441 TIP3     364      TIP3     H1       HT       0.417000       1.00800           0
     18442 TIP3     364      TIP3     H2       HT       0.417000       1.00800           0
     18443 TIP3     365      TIP3     OH2      OT      -0.834000       15.9994           0
     18444 TIP3     365      TIP3     H1       HT       0.417000       1.00800           0
     18445 TIP3     365      TIP3     H2       HT       0.417000       1.00800           0
     18446 TIP3     366      TIP3     OH2      OT      -0.834000       15.9994           0
     18447 TIP3     366      TIP3     H1       HT       0.417000       1.00800           0
     18448 TIP3     366      TIP3     H2       HT       0.417000       1.00800           0
     18449 TIP3     367      TIP3     OH2      OT      -0.834000       15.9994           0
     18450 TIP3     367      TIP3     H1       HT       0.417000       1.00800           0
     18451 TIP3     367      TIP3     H2       HT       0.417000       1.00800           0
     18452 TIP3     368      TIP3     OH2      OT      -0.834000       15.9994           0
     18453 TIP3     368      TIP3     H1       HT       0.417000       1.00800           0
     18454 TIP3     368      TIP3     H2       HT       0.417000       1.00800           0
     18455 TIP3     369      TIP3     OH2      OT      -0.834000       15.9994           0
     18456 TIP3     369      TIP3     H1       HT       0.417000       1.00800           0
     18457 TIP3     369      TIP3     H2       HT       0.417000       1.00800           0
     18458 TIP3     370      TIP3     OH2      OT      -0.834000       15.9994           0
     18459 TIP3     370      TIP3     H1       HT       0.417000       1.00800           0
     18460 TIP3     370      TIP3     H2       HT       0.417000       1.00800           0
     18461 TIP3     371      TIP3     OH2      OT      -0.834000       15.9994           0
     18462 TIP3     371      TIP3     H1       HT       0.417000       1.00800           0
     18463 TIP3     371      TIP3     H2       HT       0.417000       1.00800           0
     18464 TIP3     372      TIP3     OH2      OT      -0.834000       15.9994           0
     18465 TIP3     372      TIP3     H1       HT       0.417000       1.00800           0
     18466 TIP3     372      TIP3     H2       HT       0.417000       1.00800           0
     18467 TIP3     373      TIP3     OH2      OT      -0.834000       15.9994           0
     18468 TIP3     373      TIP3     H1       HT       0.417000       1.00800           0
     18469 TIP3     373      TIP3     H2       HT       0.417000       1.00800           0
     18470 TIP3     374      TIP3     OH2      OT      -0.834000       15.9994           0
     18471 TIP3     374      TIP3     H1       HT       0.417000       1.00800           0
     18472 TIP3     374      TIP3     H2       HT       0.417000       1.00800           0
     18473 TIP3     375      TIP3     OH2      OT      -0.834000       15.9994           0
     18474 TIP3     375      TIP3     H1       HT       0.417000       1.00800           0
     18475 TIP3     375      TIP3     H2       HT       0.417000       1.00800           0
     18476 TIP3     376      TIP3     OH2      OT      -0.834000       15.9994           0
     18477 TIP3     376      TIP3     H1       HT       0.417000       1.00800           0
     18478 TIP3     376      TIP3     H2       HT       0.417000       1.00800           0
     18479 TIP3     377      TIP3     OH2      OT      -0.834000       15.9994           0
     18480 TIP3     377      TIP3     H1       HT       0.417000       1.00800           0
     18481 TIP3     377      TIP3     H2       HT       0.417000       1.00800           0
     18482 TIP3     378      TIP3     OH2      OT      -0.834000       15.9994           0
     18483 TIP3     378      TIP3     H1       HT       0.417000       1.00800           0
     18484 TIP3     378      TIP3     H2       HT       0.417000       1.00800           0
     18485 TIP3     379      TIP3     OH2      OT      -0.834000       15.9994           0
     18486 TIP3     379      TIP3     H1       HT       0.417000       1.00800           0
     18487 TIP3     379      TIP3     H2       HT       0.417000       1.00800           0
     18488 TIP3     380      TIP3     OH2      OT      -0.834000       15.9994           0
     18489 TIP3     380      TIP3     H1       HT       0.417000       1.00800           0
     18490 TIP3     380      TIP3     H2       HT       0.417000       1.00800           0
     18491 TIP3     381      TIP3     OH2      OT      -0.834000       15.9994           0
     18492 TIP3     381      TIP3     H1       HT       0.417000       1.00800           0
     18493 TIP3     381      TIP3     H2       HT       0.417000       1.00800           0
     18494 TIP3     382      TIP3     OH2      OT      -0.834000       15.9994           0
     18495 TIP3     382      TIP3     H1       HT       0.417000       1.00800           0
     18496 TIP3     382      TIP3     H2       HT       0.417000       1.00800           0
     18497 TIP3     383      TIP3     OH2      OT      -0.834000       15.9994           0
     18498 TIP3     383      TIP3     H1       HT       0.417000       1.00800           0
     18499 TIP3     383      TIP3     H2       HT       0.417000       1.00800           0
     18500 TIP3     384      TIP3     OH2      OT      -0.834000       15.9994           0
     18501 TIP3     384      TIP3     H1       HT       0.417000       1.00800           0
     18502 TIP3     384      TIP3     H2       HT       0.417000       1.00800           0
     18503 TIP3     385      TIP3     OH2      OT      -0.834000       15.9994           0
     18504 TIP3     385      TIP3     H1       HT       0.417000       1.00800           0
     18505 TIP3     385      TIP3     H2       HT       0.417000       1.00800           0
     18506 TIP3     386      TIP3     OH2      OT      -0.834000       15.9994           0
     18507 TIP3     386      TIP3     H1       HT       0.417000       1.00800           0
     18508 TIP3     386      TIP3     H2       HT       0.417000       1.00800           0
     18509 TIP3     387      TIP3     OH2      OT      -0.834000       15.9994           0
     18510 TIP3     387      TIP3     H1       HT       0.417000       1.00800           0
     18511 TIP3     387      TIP3     H2       HT       0.417000       1.00800           0
     18512 TIP3     388      TIP3     OH2      OT      -0.834000       15.9994           0
     18513 TIP3     388      TIP3     H1       HT       0.417000       1.00800           0
     18514 TIP3     388      TIP3     H2       HT       0.417000       1.00800           0
     18515 TIP3     389      TIP3     OH2      OT      -0.834000       15.9994           0
     18516 TIP3     389      TIP3     H1       HT       0.417000       1.00800           0
     18517 TIP3     389      TIP3     H2       HT       0.417000       1.00800           0
     18518 TIP3     390      TIP3     OH2      OT      -0.834000       15.9994           0
     18519 TIP3     390      TIP3     H1       HT       0.417000       1.00800           0
     18520 TIP3     390      TIP3     H2       HT       0.417000       1.00800           0
     18521 TIP3     391      TIP3     OH2      OT      -0.834000       15.9994           0
     18522 TIP3     391      TIP3     H1       HT       0.417000       1.00800           0
     18523 TIP3     391      TIP3     H2       HT       0.417000       1.00800           0
     18524 TIP3     392      TIP3     OH2      OT      -0.834000       15.9994           0
     18525 TIP3     392      TIP3     H1       HT       0.417000       1.00800           0
     18526 TIP3     392      TIP3     H2       HT       0.417000       1.00800           0
     18527 TIP3     393      TIP3     OH2      OT      -0.834000       15.9994           0
     18528 TIP3     393      TIP3     H1       HT       0.417000       1.00800           0
     18529 TIP3     393      TIP3     H2       HT       0.417000       1.00800           0
     18530 TIP3     394      TIP3     OH2      OT      -0.834000       15.9994           0
     18531 TIP3     394      TIP3     H1       HT       0.417000       1.00800           0
     18532 TIP3     394      TIP3     H2       HT       0.417000       1.00800           0
     18533 TIP3     395      TIP3     OH2      OT      -0.834000       15.9994           0
     18534 TIP3     395      TIP3     H1       HT       0.417000       1.00800           0
     18535 TIP3     395      TIP3     H2       HT       0.417000       1.00800           0
     18536 TIP3     396      TIP3     OH2      OT      -0.834000       15.9994           0
     18537 TIP3     396      TIP3     H1       HT       0.417000       1.00800           0
     18538 TIP3     396      TIP3     H2       HT       0.417000       1.00800           0
     18539 TIP3     397      TIP3     OH2      OT      -0.834000       15.9994           0
     18540 TIP3     397      TIP3     H1       HT       0.417000       1.00800           0
     18541 TIP3     397      TIP3     H2       HT       0.417000       1.00800           0
     18542 TIP3     398      TIP3     OH2      OT      -0.834000       15.9994           0
     18543 TIP3     398      TIP3     H1       HT       0.417000       1.00800           0
     18544 TIP3     398      TIP3     H2       HT       0.417000       1.00800           0
     18545 TIP3     399      TIP3     OH2      OT      -0.834000       15.9994           0
     18546 TIP3     399      TIP3     H1       HT       0.417000       1.00800           0
     18547 TIP3     399      TIP3     H2       HT       0.417000       1.00800           0
     18548 TIP3     400      TIP3     OH2      OT      -0.834000       15.9994           0
     18549 TIP3     400      TIP3     H1       HT       0.417000       1.00800           0
     18550 TIP3     400      TIP3     H2       HT       0.417000       1.00800           0
     18551 TIP3     401      TIP3     OH2      OT      -0.834000       15.9994           0
     18552 TIP3     401      TIP3     H1       HT       0.417000       1.00800           0
     18553 TIP3     401      TIP3     H2       HT       0.417000       1.00800           0
     18554 TIP3     402      TIP3     OH2      OT      -0.834000       15.9994           0
     18555 TIP3     402      TIP3     H1       HT       0.417000       1.00800           0
     18556 TIP3     402      TIP3     H2       HT       0.417000       1.00800           0
     18557 TIP3     403      TIP3     OH2      OT      -0.834000       15.9994           0
     18558 TIP3     403      TIP3     H1       HT       0.417000       1.00800           0
     18559 TIP3     403      TIP3     H2       HT       0.417000       1.00800           0
     18560 TIP3     404      TIP3     OH2      OT      -0.834000       15.9994           0
     18561 TIP3     404      TIP3     H1       HT       0.417000       1.00800           0
     18562 TIP3     404      TIP3     H2       HT       0.417000       1.00800           0
     18563 TIP3     405      TIP3     OH2      OT      -0.834000       15.9994           0
     18564 TIP3     405      TIP3     H1       HT       0.417000       1.00800           0
     18565 TIP3     405      TIP3     H2       HT       0.417000       1.00800           0
     18566 TIP3     406      TIP3     OH2      OT      -0.834000       15.9994           0
     18567 TIP3     406      TIP3     H1       HT       0.417000       1.00800           0
     18568 TIP3     406      TIP3     H2       HT       0.417000       1.00800           0
     18569 TIP3     407      TIP3     OH2      OT      -0.834000       15.9994           0
     18570 TIP3     407      TIP3     H1       HT       0.417000       1.00800           0
     18571 TIP3     407      TIP3     H2       HT       0.417000       1.00800           0
     18572 TIP3     408      TIP3     OH2      OT      -0.834000       15.9994           0
     18573 TIP3     408      TIP3     H1       HT       0.417000       1.00800           0
     18574 TIP3     408      TIP3     H2       HT       0.417000       1.00800           0
     18575 TIP3     409      TIP3     OH2      OT      -0.834000       15.9994           0
     18576 TIP3     409      TIP3     H1       HT       0.417000       1.00800           0
     18577 TIP3     409      TIP3     H2       HT       0.417000       1.00800           0
     18578 TIP3     410      TIP3     OH2      OT      -0.834000       15.9994           0
     18579 TIP3     410      TIP3     H1       HT       0.417000       1.00800           0
     18580 TIP3     410      TIP3     H2       HT       0.417000       1.00800           0
     18581 TIP3     411      TIP3     OH2      OT      -0.834000       15.9994           0
     18582 TIP3     411      TIP3     H1       HT       0.417000       1.00800           0
     18583 TIP3     411      TIP3     H2       HT       0.417000       1.00800           0
     18584 TIP3     412      TIP3     OH2      OT      -0.834000       15.9994           0
     18585 TIP3     412      TIP3     H1       HT       0.417000       1.00800           0
     18586 TIP3     412      TIP3     H2       HT       0.417000       1.00800           0
     18587 TIP3     413      TIP3     OH2      OT      -0.834000       15.9994           0
     18588 TIP3     413      TIP3     H1       HT       0.417000       1.00800           0
     18589 TIP3     413      TIP3     H2       HT       0.417000       1.00800           0
     18590 TIP3     414      TIP3     OH2      OT      -0.834000       15.9994           0
     18591 TIP3     414      TIP3     H1       HT       0.417000       1.00800           0
     18592 TIP3     414      TIP3     H2       HT       0.417000       1.00800           0
     18593 TIP3     415      TIP3     OH2      OT      -0.834000       15.9994           0
     18594 TIP3     415      TIP3     H1       HT       0.417000       1.00800           0
     18595 TIP3     415      TIP3     H2       HT       0.417000       1.00800           0
     18596 TIP3     416      TIP3     OH2      OT      -0.834000       15.9994           0
     18597 TIP3     416      TIP3     H1       HT       0.417000       1.00800           0
     18598 TIP3     416      TIP3     H2       HT       0.417000       1.00800           0
     18599 TIP3     417      TIP3     OH2      OT      -0.834000       15.9994           0
     18600 TIP3     417      TIP3     H1       HT       0.417000       1.00800           0
     18601 TIP3     417      TIP3     H2       HT       0.417000       1.00800           0
     18602 TIP3     418      TIP3     OH2      OT      -0.834000       15.9994           0
     18603 TIP3     418      TIP3     H1       HT       0.417000       1.00800           0
     18604 TIP3     418      TIP3     H2       HT       0.417000       1.00800           0
     18605 TIP3     419      TIP3     OH2      OT      -0.834000       15.9994           0
     18606 TIP3     419      TIP3     H1       HT       0.417000       1.00800           0
     18607 TIP3     419      TIP3     H2       HT       0.417000       1.00800           0
     18608 TIP3     420      TIP3     OH2      OT      -0.834000       15.9994           0
     18609 TIP3     420      TIP3     H1       HT       0.417000       1.00800           0
     18610 TIP3     420      TIP3     H2       HT       0.417000       1.00800           0
     18611 TIP3     421      TIP3     OH2      OT      -0.834000       15.9994           0
     18612 TIP3     421      TIP3     H1       HT       0.417000       1.00800           0
     18613 TIP3     421      TIP3     H2       HT       0.417000       1.00800           0
     18614 TIP3     422      TIP3     OH2      OT      -0.834000       15.9994           0
     18615 TIP3     422      TIP3     H1       HT       0.417000       1.00800           0
     18616 TIP3     422      TIP3     H2       HT       0.417000       1.00800           0
     18617 TIP3     423      TIP3     OH2      OT      -0.834000       15.9994           0
     18618 TIP3     423      TIP3     H1       HT       0.417000       1.00800           0
     18619 TIP3     423      TIP3     H2       HT       0.417000       1.00800           0
     18620 TIP3     424      TIP3     OH2      OT      -0.834000       15.9994           0
     18621 TIP3     424      TIP3     H1       HT       0.417000       1.00800           0
     18622 TIP3     424      TIP3     H2       HT       0.417000       1.00800           0
     18623 TIP3     425      TIP3     OH2      OT      -0.834000       15.9994           0
     18624 TIP3     425      TIP3     H1       HT       0.417000       1.00800           0
     18625 TIP3     425      TIP3     H2       HT       0.417000       1.00800           0
     18626 TIP3     426      TIP3     OH2      OT      -0.834000       15.9994           0
     18627 TIP3     426      TIP3     H1       HT       0.417000       1.00800           0
     18628 TIP3     426      TIP3     H2       HT       0.417000       1.00800           0
     18629 TIP3     427      TIP3     OH2      OT      -0.834000       15.9994           0
     18630 TIP3     427      TIP3     H1       HT       0.417000       1.00800           0
     18631 TIP3     427      TIP3     H2       HT       0.417000       1.00800           0
     18632 TIP3     428      TIP3     OH2      OT      -0.834000       15.9994           0
     18633 TIP3     428      TIP3     H1       HT       0.417000       1.00800           0
     18634 TIP3     428      TIP3     H2       HT       0.417000       1.00800           0
     18635 TIP3     429      TIP3     OH2      OT      -0.834000       15.9994           0
     18636 TIP3     429      TIP3     H1       HT       0.417000       1.00800           0
     18637 TIP3     429      TIP3     H2       HT       0.417000       1.00800           0
     18638 TIP3     430      TIP3     OH2      OT      -0.834000       15.9994           0
     18639 TIP3     430      TIP3     H1       HT       0.417000       1.00800           0
     18640 TIP3     430      TIP3     H2       HT       0.417000       1.00800           0
     18641 TIP3     431      TIP3     OH2      OT      -0.834000       15.9994           0
     18642 TIP3     431      TIP3     H1       HT       0.417000       1.00800           0
     18643 TIP3     431      TIP3     H2       HT       0.417000       1.00800           0
     18644 TIP3     432      TIP3     OH2      OT      -0.834000       15.9994           0
     18645 TIP3     432      TIP3     H1       HT       0.417000       1.00800           0
     18646 TIP3     432      TIP3     H2       HT       0.417000       1.00800           0
     18647 TIP3     433      TIP3     OH2      OT      -0.834000       15.9994           0
     18648 TIP3     433      TIP3     H1       HT       0.417000       1.00800           0
     18649 TIP3     433      TIP3     H2       HT       0.417000       1.00800           0
     18650 TIP3     434      TIP3     OH2      OT      -0.834000       15.9994           0
     18651 TIP3     434      TIP3     H1       HT       0.417000       1.00800           0
     18652 TIP3     434      TIP3     H2       HT       0.417000       1.00800           0
     18653 TIP3     435      TIP3     OH2      OT      -0.834000       15.9994           0
     18654 TIP3     435      TIP3     H1       HT       0.417000       1.00800           0
     18655 TIP3     435      TIP3     H2       HT       0.417000       1.00800           0
     18656 TIP3     436      TIP3     OH2      OT      -0.834000       15.9994           0
     18657 TIP3     436      TIP3     H1       HT       0.417000       1.00800           0
     18658 TIP3     436      TIP3     H2       HT       0.417000       1.00800           0
     18659 TIP3     437      TIP3     OH2      OT      -0.834000       15.9994           0
     18660 TIP3     437      TIP3     H1       HT       0.417000       1.00800           0
     18661 TIP3     437      TIP3     H2       HT       0.417000       1.00800           0
     18662 TIP3     438      TIP3     OH2      OT      -0.834000       15.9994           0
     18663 TIP3     438      TIP3     H1       HT       0.417000       1.00800           0
     18664 TIP3     438      TIP3     H2       HT       0.417000       1.00800           0
     18665 TIP3     439      TIP3     OH2      OT      -0.834000       15.9994           0
     18666 TIP3     439      TIP3     H1       HT       0.417000       1.00800           0
     18667 TIP3     439      TIP3     H2       HT       0.417000       1.00800           0
     18668 TIP3     440      TIP3     OH2      OT      -0.834000       15.9994           0
     18669 TIP3     440      TIP3     H1       HT       0.417000       1.00800           0
     18670 TIP3     440      TIP3     H2       HT       0.417000       1.00800           0
     18671 TIP3     441      TIP3     OH2      OT      -0.834000       15.9994           0
     18672 TIP3     441      TIP3     H1       HT       0.417000       1.00800           0
     18673 TIP3     441      TIP3     H2       HT       0.417000       1.00800           0
     18674 TIP3     442      TIP3     OH2      OT      -0.834000       15.9994           0
     18675 TIP3     442      TIP3     H1       HT       0.417000       1.00800           0
     18676 TIP3     442      TIP3     H2       HT       0.417000       1.00800           0
     18677 TIP3     443      TIP3     OH2      OT      -0.834000       15.9994           0
     18678 TIP3     443      TIP3     H1       HT       0.417000       1.00800           0
     18679 TIP3     443      TIP3     H2       HT       0.417000       1.00800           0
     18680 TIP3     444      TIP3     OH2      OT      -0.834000       15.9994           0
     18681 TIP3     444      TIP3     H1       HT       0.417000       1.00800           0
     18682 TIP3     444      TIP3     H2       HT       0.417000       1.00800           0
     18683 TIP3     445      TIP3     OH2      OT      -0.834000       15.9994           0
     18684 TIP3     445      TIP3     H1       HT       0.417000       1.00800           0
     18685 TIP3     445      TIP3     H2       HT       0.417000       1.00800           0
     18686 TIP3     446      TIP3     OH2      OT      -0.834000       15.9994           0
     18687 TIP3     446      TIP3     H1       HT       0.417000       1.00800           0
     18688 TIP3     446      TIP3     H2       HT       0.417000       1.00800           0
     18689 TIP3     447      TIP3     OH2      OT      -0.834000       15.9994           0
     18690 TIP3     447      TIP3     H1       HT       0.417000       1.00800           0
     18691 TIP3     447      TIP3     H2       HT       0.417000       1.00800           0
     18692 TIP3     448      TIP3     OH2      OT      -0.834000       15.9994           0
     18693 TIP3     448      TIP3     H1       HT       0.417000       1.00800           0
     18694 TIP3     448      TIP3     H2       HT       0.417000       1.00800           0
     18695 TIP3     449      TIP3     OH2      OT      -0.834000       15.9994           0
     18696 TIP3     449      TIP3     H1       HT       0.417000       1.00800           0
     18697 TIP3     449      TIP3     H2       HT       0.417000       1.00800           0
     18698 TIP3     450      TIP3     OH2      OT      -0.834000       15.9994           0
     18699 TIP3     450      TIP3     H1       HT       0.417000       1.00800           0
     18700 TIP3     450      TIP3     H2       HT       0.417000       1.00800           0
     18701 TIP3     451      TIP3     OH2      OT      -0.834000       15.9994           0
     18702 TIP3     451      TIP3     H1       HT       0.417000       1.00800           0
     18703 TIP3     451      TIP3     H2       HT       0.417000       1.00800           0
     18704 TIP3     452      TIP3     OH2      OT      -0.834000       15.9994           0
     18705 TIP3     452      TIP3     H1       HT       0.417000       1.00800           0
     18706 TIP3     452      TIP3     H2       HT       0.417000       1.00800           0
     18707 TIP3     453      TIP3     OH2      OT      -0.834000       15.9994           0
     18708 TIP3     453      TIP3     H1       HT       0.417000       1.00800           0
     18709 TIP3     453      TIP3     H2       HT       0.417000       1.00800           0
     18710 TIP3     454      TIP3     OH2      OT      -0.834000       15.9994           0
     18711 TIP3     454      TIP3     H1       HT       0.417000       1.00800           0
     18712 TIP3     454      TIP3     H2       HT       0.417000       1.00800           0
     18713 TIP3     455      TIP3     OH2      OT      -0.834000       15.9994           0
     18714 TIP3     455      TIP3     H1       HT       0.417000       1.00800           0
     18715 TIP3     455      TIP3     H2       HT       0.417000       1.00800           0
     18716 TIP3     456      TIP3     OH2      OT      -0.834000       15.9994           0
     18717 TIP3     456      TIP3     H1       HT       0.417000       1.00800           0
     18718 TIP3     456      TIP3     H2       HT       0.417000       1.00800           0
     18719 TIP3     457      TIP3     OH2      OT      -0.834000       15.9994           0
     18720 TIP3     457      TIP3     H1       HT       0.417000       1.00800           0
     18721 TIP3     457      TIP3     H2       HT       0.417000       1.00800           0
     18722 TIP3     458      TIP3     OH2      OT      -0.834000       15.9994           0
     18723 TIP3     458      TIP3     H1       HT       0.417000       1.00800           0
     18724 TIP3     458      TIP3     H2       HT       0.417000       1.00800           0
     18725 TIP3     459      TIP3     OH2      OT      -0.834000       15.9994           0
     18726 TIP3     459      TIP3     H1       HT       0.417000       1.00800           0
     18727 TIP3     459      TIP3     H2       HT       0.417000       1.00800           0
     18728 TIP3     460      TIP3     OH2      OT      -0.834000       15.9994           0
     18729 TIP3     460      TIP3     H1       HT       0.417000       1.00800           0
     18730 TIP3     460      TIP3     H2       HT       0.417000       1.00800           0
     18731 TIP3     461      TIP3     OH2      OT      -0.834000       15.9994           0
     18732 TIP3     461      TIP3     H1       HT       0.417000       1.00800           0
     18733 TIP3     461      TIP3     H2       HT       0.417000       1.00800           0
     18734 TIP3     462      TIP3     OH2      OT      -0.834000       15.9994           0
     18735 TIP3     462      TIP3     H1       HT       0.417000       1.00800           0
     18736 TIP3     462      TIP3     H2       HT       0.417000       1.00800           0
     18737 TIP3     463      TIP3     OH2      OT      -0.834000       15.9994           0
     18738 TIP3     463      TIP3     H1       HT       0.417000       1.00800           0
     18739 TIP3     463      TIP3     H2       HT       0.417000       1.00800           0
     18740 TIP3     464      TIP3     OH2      OT      -0.834000       15.9994           0
     18741 TIP3     464      TIP3     H1       HT       0.417000       1.00800           0
     18742 TIP3     464      TIP3     H2       HT       0.417000       1.00800           0
     18743 TIP3     465      TIP3     OH2      OT      -0.834000       15.9994           0
     18744 TIP3     465      TIP3     H1       HT       0.417000       1.00800           0
     18745 TIP3     465      TIP3     H2       HT       0.417000       1.00800           0
     18746 TIP3     466      TIP3     OH2      OT      -0.834000       15.9994           0
     18747 TIP3     466      TIP3     H1       HT       0.417000       1.00800           0
     18748 TIP3     466      TIP3     H2       HT       0.417000       1.00800           0
     18749 TIP3     467      TIP3     OH2      OT      -0.834000       15.9994           0
     18750 TIP3     467      TIP3     H1       HT       0.417000       1.00800           0
     18751 TIP3     467      TIP3     H2       HT       0.417000       1.00800           0
     18752 TIP3     468      TIP3     OH2      OT      -0.834000       15.9994           0
     18753 TIP3     468      TIP3     H1       HT       0.417000       1.00800           0
     18754 TIP3     468      TIP3     H2       HT       0.417000       1.00800           0
     18755 TIP3     469      TIP3     OH2      OT      -0.834000       15.9994           0
     18756 TIP3     469      TIP3     H1       HT       0.417000       1.00800           0
     18757 TIP3     469      TIP3     H2       HT       0.417000       1.00800           0
     18758 TIP3     470      TIP3     OH2      OT      -0.834000       15.9994           0
     18759 TIP3     470      TIP3     H1       HT       0.417000       1.00800           0
     18760 TIP3     470      TIP3     H2       HT       0.417000       1.00800           0
     18761 TIP3     471      TIP3     OH2      OT      -0.834000       15.9994           0
     18762 TIP3     471      TIP3     H1       HT       0.417000       1.00800           0
     18763 TIP3     471      TIP3     H2       HT       0.417000       1.00800           0
     18764 TIP3     472      TIP3     OH2      OT      -0.834000       15.9994           0
     18765 TIP3     472      TIP3     H1       HT       0.417000       1.00800           0
     18766 TIP3     472      TIP3     H2       HT       0.417000       1.00800           0
     18767 TIP3     473      TIP3     OH2      OT      -0.834000       15.9994           0
     18768 TIP3     473      TIP3     H1       HT       0.417000       1.00800           0
     18769 TIP3     473      TIP3     H2       HT       0.417000       1.00800           0
     18770 TIP3     474      TIP3     OH2      OT      -0.834000       15.9994           0
     18771 TIP3     474      TIP3     H1       HT       0.417000       1.00800           0
     18772 TIP3     474      TIP3     H2       HT       0.417000       1.00800           0
     18773 TIP3     475      TIP3     OH2      OT      -0.834000       15.9994           0
     18774 TIP3     475      TIP3     H1       HT       0.417000       1.00800           0
     18775 TIP3     475      TIP3     H2       HT       0.417000       1.00800           0
     18776 TIP3     476      TIP3     OH2      OT      -0.834000       15.9994           0
     18777 TIP3     476      TIP3     H1       HT       0.417000       1.00800           0
     18778 TIP3     476      TIP3     H2       HT       0.417000       1.00800           0
     18779 TIP3     477      TIP3     OH2      OT      -0.834000       15.9994           0
     18780 TIP3     477      TIP3     H1       HT       0.417000       1.00800           0
     18781 TIP3     477      TIP3     H2       HT       0.417000       1.00800           0
     18782 TIP3     478      TIP3     OH2      OT      -0.834000       15.9994           0
     18783 TIP3     478      TIP3     H1       HT       0.417000       1.00800           0
     18784 TIP3     478      TIP3     H2       HT       0.417000       1.00800           0
     18785 TIP3     479      TIP3     OH2      OT      -0.834000       15.9994           0
     18786 TIP3     479      TIP3     H1       HT       0.417000       1.00800           0
     18787 TIP3     479      TIP3     H2       HT       0.417000       1.00800           0
     18788 TIP3     480      TIP3     OH2      OT      -0.834000       15.9994           0
     18789 TIP3     480      TIP3     H1       HT       0.417000       1.00800           0
     18790 TIP3     480      TIP3     H2       HT       0.417000       1.00800           0
     18791 TIP3     481      TIP3     OH2      OT      -0.834000       15.9994           0
     18792 TIP3     481      TIP3     H1       HT       0.417000       1.00800           0
     18793 TIP3     481      TIP3     H2       HT       0.417000       1.00800           0
     18794 TIP3     482      TIP3     OH2      OT      -0.834000       15.9994           0
     18795 TIP3     482      TIP3     H1       HT       0.417000       1.00800           0
     18796 TIP3     482      TIP3     H2       HT       0.417000       1.00800           0
     18797 TIP3     483      TIP3     OH2      OT      -0.834000       15.9994           0
     18798 TIP3     483      TIP3     H1       HT       0.417000       1.00800           0
     18799 TIP3     483      TIP3     H2       HT       0.417000       1.00800           0
     18800 TIP3     484      TIP3     OH2      OT      -0.834000       15.9994           0
     18801 TIP3     484      TIP3     H1       HT       0.417000       1.00800           0
     18802 TIP3     484      TIP3     H2       HT       0.417000       1.00800           0
     18803 TIP3     485      TIP3     OH2      OT      -0.834000       15.9994           0
     18804 TIP3     485      TIP3     H1       HT       0.417000       1.00800           0
     18805 TIP3     485      TIP3     H2       HT       0.417000       1.00800           0
     18806 TIP3     486      TIP3     OH2      OT      -0.834000       15.9994           0
     18807 TIP3     486      TIP3     H1       HT       0.417000       1.00800           0
     18808 TIP3     486      TIP3     H2       HT       0.417000       1.00800           0
     18809 TIP3     487      TIP3     OH2      OT      -0.834000       15.9994           0
     18810 TIP3     487      TIP3     H1       HT       0.417000       1.00800           0
     18811 TIP3     487      TIP3     H2       HT       0.417000       1.00800           0
     18812 TIP3     488      TIP3     OH2      OT      -0.834000       15.9994           0
     18813 TIP3     488      TIP3     H1       HT       0.417000       1.00800           0
     18814 TIP3     488      TIP3     H2       HT       0.417000       1.00800           0
     18815 TIP3     489      TIP3     OH2      OT      -0.834000       15.9994           0
     18816 TIP3     489      TIP3     H1       HT       0.417000       1.00800           0
     18817 TIP3     489      TIP3     H2       HT       0.417000       1.00800           0
     18818 TIP3     490      TIP3     OH2      OT      -0.834000       15.9994           0
     18819 TIP3     490      TIP3     H1       HT       0.417000       1.00800           0
     18820 TIP3     490      TIP3     H2       HT       0.417000       1.00800           0
     18821 TIP3     491      TIP3     OH2      OT      -0.834000       15.9994           0
     18822 TIP3     491      TIP3     H1       HT       0.417000       1.00800           0
     18823 TIP3     491      TIP3     H2       HT       0.417000       1.00800           0
     18824 TIP3     492      TIP3     OH2      OT      -0.834000       15.9994           0
     18825 TIP3     492      TIP3     H1       HT       0.417000       1.00800           0
     18826 TIP3     492      TIP3     H2       HT       0.417000       1.00800           0
     18827 TIP3     493      TIP3     OH2      OT      -0.834000       15.9994           0
     18828 TIP3     493      TIP3     H1       HT       0.417000       1.00800           0
     18829 TIP3     493      TIP3     H2       HT       0.417000       1.00800           0
     18830 TIP3     494      TIP3     OH2      OT      -0.834000       15.9994           0
     18831 TIP3     494      TIP3     H1       HT       0.417000       1.00800           0
     18832 TIP3     494      TIP3     H2       HT       0.417000       1.00800           0
     18833 TIP3     495      TIP3     OH2      OT      -0.834000       15.9994           0
     18834 TIP3     495      TIP3     H1       HT       0.417000       1.00800           0
     18835 TIP3     495      TIP3     H2       HT       0.417000       1.00800           0
     18836 TIP3     496      TIP3     OH2      OT      -0.834000       15.9994           0
     18837 TIP3     496      TIP3     H1       HT       0.417000       1.00800           0
     18838 TIP3     496      TIP3     H2       HT       0.417000       1.00800           0
     18839 TIP3     497      TIP3     OH2      OT      -0.834000       15.9994           0
     18840 TIP3     497      TIP3     H1       HT       0.417000       1.00800           0
     18841 TIP3     497      TIP3     H2       HT       0.417000       1.00800           0
     18842 TIP3     498      TIP3     OH2      OT      -0.834000       15.9994           0
     18843 TIP3     498      TIP3     H1       HT       0.417000       1.00800           0
     18844 TIP3     498      TIP3     H2       HT       0.417000       1.00800           0
     18845 TIP3     499      TIP3     OH2      OT      -0.834000       15.9994           0
     18846 TIP3     499      TIP3     H1       HT       0.417000       1.00800           0
     18847 TIP3     499      TIP3     H2       HT       0.417000       1.00800           0
     18848 TIP3     500      TIP3     OH2      OT      -0.834000       15.9994           0
     18849 TIP3     500      TIP3     H1       HT       0.417000       1.00800           0
     18850 TIP3     500      TIP3     H2       HT       0.417000       1.00800           0
     18851 TIP3     501      TIP3     OH2      OT      -0.834000       15.9994           0
     18852 TIP3     501      TIP3     H1       HT       0.417000       1.00800           0
     18853 TIP3     501      TIP3     H2       HT       0.417000       1.00800           0
     18854 TIP3     502      TIP3     OH2      OT      -0.834000       15.9994           0
     18855 TIP3     502      TIP3     H1       HT       0.417000       1.00800           0
     18856 TIP3     502      TIP3     H2       HT       0.417000       1.00800           0
     18857 TIP3     503      TIP3     OH2      OT      -0.834000       15.9994           0
     18858 TIP3     503      TIP3     H1       HT       0.417000       1.00800           0
     18859 TIP3     503      TIP3     H2       HT       0.417000       1.00800           0
     18860 TIP3     504      TIP3     OH2      OT      -0.834000       15.9994           0
     18861 TIP3     504      TIP3     H1       HT       0.417000       1.00800           0
     18862 TIP3     504      TIP3     H2       HT       0.417000       1.00800           0
     18863 TIP3     505      TIP3     OH2      OT      -0.834000       15.9994           0
     18864 TIP3     505      TIP3     H1       HT       0.417000       1.00800           0
     18865 TIP3     505      TIP3     H2       HT       0.417000       1.00800           0
     18866 TIP3     506      TIP3     OH2      OT      -0.834000       15.9994           0
     18867 TIP3     506      TIP3     H1       HT       0.417000       1.00800           0
     18868 TIP3     506      TIP3     H2       HT       0.417000       1.00800           0
     18869 TIP3     507      TIP3     OH2      OT      -0.834000       15.9994           0
     18870 TIP3     507      TIP3     H1       HT       0.417000       1.00800           0
     18871 TIP3     507      TIP3     H2       HT       0.417000       1.00800           0
     18872 TIP3     508      TIP3     OH2      OT      -0.834000       15.9994           0
     18873 TIP3     508      TIP3     H1       HT       0.417000       1.00800           0
     18874 TIP3     508      TIP3     H2       HT       0.417000       1.00800           0
     18875 TIP3     509      TIP3     OH2      OT      -0.834000       15.9994           0
     18876 TIP3     509      TIP3     H1       HT       0.417000       1.00800           0
     18877 TIP3     509      TIP3     H2       HT       0.417000       1.00800           0
     18878 TIP3     510      TIP3     OH2      OT      -0.834000       15.9994           0
     18879 TIP3     510      TIP3     H1       HT       0.417000       1.00800           0
     18880 TIP3     510      TIP3     H2       HT       0.417000       1.00800           0
     18881 TIP3     511      TIP3     OH2      OT      -0.834000       15.9994           0
     18882 TIP3     511      TIP3     H1       HT       0.417000       1.00800           0
     18883 TIP3     511      TIP3     H2       HT       0.417000       1.00800           0
     18884 TIP3     512      TIP3     OH2      OT      -0.834000       15.9994           0
     18885 TIP3     512      TIP3     H1       HT       0.417000       1.00800           0
     18886 TIP3     512      TIP3     H2       HT       0.417000       1.00800           0
     18887 TIP3     513      TIP3     OH2      OT      -0.834000       15.9994           0
     18888 TIP3     513      TIP3     H1       HT       0.417000       1.00800           0
     18889 TIP3     513      TIP3     H2       HT       0.417000       1.00800           0
     18890 TIP3     514      TIP3     OH2      OT      -0.834000       15.9994           0
     18891 TIP3     514      TIP3     H1       HT       0.417000       1.00800           0
     18892 TIP3     514      TIP3     H2       HT       0.417000       1.00800           0
     18893 TIP3     515      TIP3     OH2      OT      -0.834000       15.9994           0
     18894 TIP3     515      TIP3     H1       HT       0.417000       1.00800           0
     18895 TIP3     515      TIP3     H2       HT       0.417000       1.00800           0
     18896 TIP3     516      TIP3     OH2      OT      -0.834000       15.9994           0
     18897 TIP3     516      TIP3     H1       HT       0.417000       1.00800           0
     18898 TIP3     516      TIP3     H2       HT       0.417000       1.00800           0
     18899 TIP3     517      TIP3     OH2      OT      -0.834000       15.9994           0
     18900 TIP3     517      TIP3     H1       HT       0.417000       1.00800           0
     18901 TIP3     517      TIP3     H2       HT       0.417000       1.00800           0
     18902 TIP3     518      TIP3     OH2      OT      -0.834000       15.9994           0
     18903 TIP3     518      TIP3     H1       HT       0.417000       1.00800           0
     18904 TIP3     518      TIP3     H2       HT       0.417000       1.00800           0
     18905 TIP3     519      TIP3     OH2      OT      -0.834000       15.9994           0
     18906 TIP3     519      TIP3     H1       HT       0.417000       1.00800           0
     18907 TIP3     519      TIP3     H2       HT       0.417000       1.00800           0
     18908 TIP3     520      TIP3     OH2      OT      -0.834000       15.9994           0
     18909 TIP3     520      TIP3     H1       HT       0.417000       1.00800           0
     18910 TIP3     520      TIP3     H2       HT       0.417000       1.00800           0
     18911 TIP3     521      TIP3     OH2      OT      -0.834000       15.9994           0
     18912 TIP3     521      TIP3     H1       HT       0.417000       1.00800           0
     18913 TIP3     521      TIP3     H2       HT       0.417000       1.00800           0
     18914 TIP3     522      TIP3     OH2      OT      -0.834000       15.9994           0
     18915 TIP3     522      TIP3     H1       HT       0.417000       1.00800           0
     18916 TIP3     522      TIP3     H2       HT       0.417000       1.00800           0
     18917 TIP3     523      TIP3     OH2      OT      -0.834000       15.9994           0
     18918 TIP3     523      TIP3     H1       HT       0.417000       1.00800           0
     18919 TIP3     523      TIP3     H2       HT       0.417000       1.00800           0
     18920 TIP3     524      TIP3     OH2      OT      -0.834000       15.9994           0
     18921 TIP3     524      TIP3     H1       HT       0.417000       1.00800           0
     18922 TIP3     524      TIP3     H2       HT       0.417000       1.00800           0
     18923 TIP3     525      TIP3     OH2      OT      -0.834000       15.9994           0
     18924 TIP3     525      TIP3     H1       HT       0.417000       1.00800           0
     18925 TIP3     525      TIP3     H2       HT       0.417000       1.00800           0
     18926 TIP3     526      TIP3     OH2      OT      -0.834000       15.9994           0
     18927 TIP3     526      TIP3     H1       HT       0.417000       1.00800           0
     18928 TIP3     526      TIP3     H2       HT       0.417000       1.00800           0
     18929 TIP3     527      TIP3     OH2      OT      -0.834000       15.9994           0
     18930 TIP3     527      TIP3     H1       HT       0.417000       1.00800           0
     18931 TIP3     527      TIP3     H2       HT       0.417000       1.00800           0
     18932 TIP3     528      TIP3     OH2      OT      -0.834000       15.9994           0
     18933 TIP3     528      TIP3     H1       HT       0.417000       1.00800           0
     18934 TIP3     528      TIP3     H2       HT       0.417000       1.00800           0
     18935 TIP3     529      TIP3     OH2      OT      -0.834000       15.9994           0
     18936 TIP3     529      TIP3     H1       HT       0.417000       1.00800           0
     18937 TIP3     529      TIP3     H2       HT       0.417000       1.00800           0
     18938 TIP3     530      TIP3     OH2      OT      -0.834000       15.9994           0
     18939 TIP3     530      TIP3     H1       HT       0.417000       1.00800           0
     18940 TIP3     530      TIP3     H2       HT       0.417000       1.00800           0
     18941 TIP3     531      TIP3     OH2      OT      -0.834000       15.9994           0
     18942 TIP3     531      TIP3     H1       HT       0.417000       1.00800           0
     18943 TIP3     531      TIP3     H2       HT       0.417000       1.00800           0
     18944 TIP3     532      TIP3     OH2      OT      -0.834000       15.9994           0
     18945 TIP3     532      TIP3     H1       HT       0.417000       1.00800           0
     18946 TIP3     532      TIP3     H2       HT       0.417000       1.00800           0
     18947 TIP3     533      TIP3     OH2      OT      -0.834000       15.9994           0
     18948 TIP3     533      TIP3     H1       HT       0.417000       1.00800           0
     18949 TIP3     533      TIP3     H2       HT       0.417000       1.00800           0
     18950 TIP3     534      TIP3     OH2      OT      -0.834000       15.9994           0
     18951 TIP3     534      TIP3     H1       HT       0.417000       1.00800           0
     18952 TIP3     534      TIP3     H2       HT       0.417000       1.00800           0
     18953 TIP3     535      TIP3     OH2      OT      -0.834000       15.9994           0
     18954 TIP3     535      TIP3     H1       HT       0.417000       1.00800           0
     18955 TIP3     535      TIP3     H2       HT       0.417000       1.00800           0
     18956 TIP3     536      TIP3     OH2      OT      -0.834000       15.9994           0
     18957 TIP3     536      TIP3     H1       HT       0.417000       1.00800           0
     18958 TIP3     536      TIP3     H2       HT       0.417000       1.00800           0
     18959 TIP3     537      TIP3     OH2      OT      -0.834000       15.9994           0
     18960 TIP3     537      TIP3     H1       HT       0.417000       1.00800           0
     18961 TIP3     537      TIP3     H2       HT       0.417000       1.00800           0
     18962 TIP3     538      TIP3     OH2      OT      -0.834000       15.9994           0
     18963 TIP3     538      TIP3     H1       HT       0.417000       1.00800           0
     18964 TIP3     538      TIP3     H2       HT       0.417000       1.00800           0
     18965 TIP3     539      TIP3     OH2      OT      -0.834000       15.9994           0
     18966 TIP3     539      TIP3     H1       HT       0.417000       1.00800           0
     18967 TIP3     539      TIP3     H2       HT       0.417000       1.00800           0
     18968 TIP3     540      TIP3     OH2      OT      -0.834000       15.9994           0
     18969 TIP3     540      TIP3     H1       HT       0.417000       1.00800           0
     18970 TIP3     540      TIP3     H2       HT       0.417000       1.00800           0
     18971 TIP3     541      TIP3     OH2      OT      -0.834000       15.9994           0
     18972 TIP3     541      TIP3     H1       HT       0.417000       1.00800           0
     18973 TIP3     541      TIP3     H2       HT       0.417000       1.00800           0
     18974 TIP3     542      TIP3     OH2      OT      -0.834000       15.9994           0
     18975 TIP3     542      TIP3     H1       HT       0.417000       1.00800           0
     18976 TIP3     542      TIP3     H2       HT       0.417000       1.00800           0
     18977 TIP3     543      TIP3     OH2      OT      -0.834000       15.9994           0
     18978 TIP3     543      TIP3     H1       HT       0.417000       1.00800           0
     18979 TIP3     543      TIP3     H2       HT       0.417000       1.00800           0
     18980 TIP3     544      TIP3     OH2      OT      -0.834000       15.9994           0
     18981 TIP3     544      TIP3     H1       HT       0.417000       1.00800           0
     18982 TIP3     544      TIP3     H2       HT       0.417000       1.00800           0
     18983 TIP3     545      TIP3     OH2      OT      -0.834000       15.9994           0
     18984 TIP3     545      TIP3     H1       HT       0.417000       1.00800           0
     18985 TIP3     545      TIP3     H2       HT       0.417000       1.00800           0
     18986 TIP3     546      TIP3     OH2      OT      -0.834000       15.9994           0
     18987 TIP3     546      TIP3     H1       HT       0.417000       1.00800           0
     18988 TIP3     546      TIP3     H2       HT       0.417000       1.00800           0
     18989 TIP3     547      TIP3     OH2      OT      -0.834000       15.9994           0
     18990 TIP3     547      TIP3     H1       HT       0.417000       1.00800           0
     18991 TIP3     547      TIP3     H2       HT       0.417000       1.00800           0
     18992 TIP3     548      TIP3     OH2      OT      -0.834000       15.9994           0
     18993 TIP3     548      TIP3     H1       HT       0.417000       1.00800           0
     18994 TIP3     548      TIP3     H2       HT       0.417000       1.00800           0
     18995 TIP3     549      TIP3     OH2      OT      -0.834000       15.9994           0
     18996 TIP3     549      TIP3     H1       HT       0.417000       1.00800           0
     18997 TIP3     549      TIP3     H2       HT       0.417000       1.00800           0
     18998 TIP3     550      TIP3     OH2      OT      -0.834000       15.9994           0
     18999 TIP3     550      TIP3     H1       HT       0.417000       1.00800           0
     19000 TIP3     550      TIP3     H2       HT       0.417000       1.00800           0
     19001 TIP3     551      TIP3     OH2      OT      -0.834000       15.9994           0
     19002 TIP3     551      TIP3     H1       HT       0.417000       1.00800           0
     19003 TIP3     551      TIP3     H2       HT       0.417000       1.00800           0
     19004 TIP3     552      TIP3     OH2      OT      -0.834000       15.9994           0
     19005 TIP3     552      TIP3     H1       HT       0.417000       1.00800           0
     19006 TIP3     552      TIP3     H2       HT       0.417000       1.00800           0
     19007 TIP3     553      TIP3     OH2      OT      -0.834000       15.9994           0
     19008 TIP3     553      TIP3     H1       HT       0.417000       1.00800           0
     19009 TIP3     553      TIP3     H2       HT       0.417000       1.00800           0
     19010 TIP3     554      TIP3     OH2      OT      -0.834000       15.9994           0
     19011 TIP3     554      TIP3     H1       HT       0.417000       1.00800           0
     19012 TIP3     554      TIP3     H2       HT       0.417000       1.00800           0
     19013 TIP3     555      TIP3     OH2      OT      -0.834000       15.9994           0
     19014 TIP3     555      TIP3     H1       HT       0.417000       1.00800           0
     19015 TIP3     555      TIP3     H2       HT       0.417000       1.00800           0
     19016 TIP3     556      TIP3     OH2      OT      -0.834000       15.9994           0
     19017 TIP3     556      TIP3     H1       HT       0.417000       1.00800           0
     19018 TIP3     556      TIP3     H2       HT       0.417000       1.00800           0
     19019 TIP3     557      TIP3     OH2      OT      -0.834000       15.9994           0
     19020 TIP3     557      TIP3     H1       HT       0.417000       1.00800           0
     19021 TIP3     557      TIP3     H2       HT       0.417000       1.00800           0
     19022 TIP3     558      TIP3     OH2      OT      -0.834000       15.9994           0
     19023 TIP3     558      TIP3     H1       HT       0.417000       1.00800           0
     19024 TIP3     558      TIP3     H2       HT       0.417000       1.00800           0
     19025 TIP3     559      TIP3     OH2      OT      -0.834000       15.9994           0
     19026 TIP3     559      TIP3     H1       HT       0.417000       1.00800           0
     19027 TIP3     559      TIP3     H2       HT       0.417000       1.00800           0
     19028 TIP3     560      TIP3     OH2      OT      -0.834000       15.9994           0
     19029 TIP3     560      TIP3     H1       HT       0.417000       1.00800           0
     19030 TIP3     560      TIP3     H2       HT       0.417000       1.00800           0
     19031 TIP3     561      TIP3     OH2      OT      -0.834000       15.9994           0
     19032 TIP3     561      TIP3     H1       HT       0.417000       1.00800           0
     19033 TIP3     561      TIP3     H2       HT       0.417000       1.00800           0
     19034 TIP3     562      TIP3     OH2      OT      -0.834000       15.9994           0
     19035 TIP3     562      TIP3     H1       HT       0.417000       1.00800           0
     19036 TIP3     562      TIP3     H2       HT       0.417000       1.00800           0
     19037 TIP3     563      TIP3     OH2      OT      -0.834000       15.9994           0
     19038 TIP3     563      TIP3     H1       HT       0.417000       1.00800           0
     19039 TIP3     563      TIP3     H2       HT       0.417000       1.00800           0
     19040 TIP3     564      TIP3     OH2      OT      -0.834000       15.9994           0
     19041 TIP3     564      TIP3     H1       HT       0.417000       1.00800           0
     19042 TIP3     564      TIP3     H2       HT       0.417000       1.00800           0
     19043 TIP3     565      TIP3     OH2      OT      -0.834000       15.9994           0
     19044 TIP3     565      TIP3     H1       HT       0.417000       1.00800           0
     19045 TIP3     565      TIP3     H2       HT       0.417000       1.00800           0
     19046 TIP3     566      TIP3     OH2      OT      -0.834000       15.9994           0
     19047 TIP3     566      TIP3     H1       HT       0.417000       1.00800           0
     19048 TIP3     566      TIP3     H2       HT       0.417000       1.00800           0
     19049 TIP3     567      TIP3     OH2      OT      -0.834000       15.9994           0
     19050 TIP3     567      TIP3     H1       HT       0.417000       1.00800           0
     19051 TIP3     567      TIP3     H2       HT       0.417000       1.00800           0
     19052 TIP3     568      TIP3     OH2      OT      -0.834000       15.9994           0
     19053 TIP3     568      TIP3     H1       HT       0.417000       1.00800           0
     19054 TIP3     568      TIP3     H2       HT       0.417000       1.00800           0
     19055 TIP3     569      TIP3     OH2      OT      -0.834000       15.9994           0
     19056 TIP3     569      TIP3     H1       HT       0.417000       1.00800           0
     19057 TIP3     569      TIP3     H2       HT       0.417000       1.00800           0
     19058 TIP3     570      TIP3     OH2      OT      -0.834000       15.9994           0
     19059 TIP3     570      TIP3     H1       HT       0.417000       1.00800           0
     19060 TIP3     570      TIP3     H2       HT       0.417000       1.00800           0
     19061 TIP3     571      TIP3     OH2      OT      -0.834000       15.9994           0
     19062 TIP3     571      TIP3     H1       HT       0.417000       1.00800           0
     19063 TIP3     571      TIP3     H2       HT       0.417000       1.00800           0
     19064 TIP3     572      TIP3     OH2      OT      -0.834000       15.9994           0
     19065 TIP3     572      TIP3     H1       HT       0.417000       1.00800           0
     19066 TIP3     572      TIP3     H2       HT       0.417000       1.00800           0
     19067 TIP3     573      TIP3     OH2      OT      -0.834000       15.9994           0
     19068 TIP3     573      TIP3     H1       HT       0.417000       1.00800           0
     19069 TIP3     573      TIP3     H2       HT       0.417000       1.00800           0
     19070 TIP3     574      TIP3     OH2      OT      -0.834000       15.9994           0
     19071 TIP3     574      TIP3     H1       HT       0.417000       1.00800           0
     19072 TIP3     574      TIP3     H2       HT       0.417000       1.00800           0
     19073 TIP3     575      TIP3     OH2      OT      -0.834000       15.9994           0
     19074 TIP3     575      TIP3     H1       HT       0.417000       1.00800           0
     19075 TIP3     575      TIP3     H2       HT       0.417000       1.00800           0
     19076 TIP3     576      TIP3     OH2      OT      -0.834000       15.9994           0
     19077 TIP3     576      TIP3     H1       HT       0.417000       1.00800           0
     19078 TIP3     576      TIP3     H2       HT       0.417000       1.00800           0
     19079 TIP3     577      TIP3     OH2      OT      -0.834000       15.9994           0
     19080 TIP3     577      TIP3     H1       HT       0.417000       1.00800           0
     19081 TIP3     577      TIP3     H2       HT       0.417000       1.00800           0
     19082 TIP3     578      TIP3     OH2      OT      -0.834000       15.9994           0
     19083 TIP3     578      TIP3     H1       HT       0.417000       1.00800           0
     19084 TIP3     578      TIP3     H2       HT       0.417000       1.00800           0
     19085 TIP3     579      TIP3     OH2      OT      -0.834000       15.9994           0
     19086 TIP3     579      TIP3     H1       HT       0.417000       1.00800           0
     19087 TIP3     579      TIP3     H2       HT       0.417000       1.00800           0
     19088 TIP3     580      TIP3     OH2      OT      -0.834000       15.9994           0
     19089 TIP3     580      TIP3     H1       HT       0.417000       1.00800           0
     19090 TIP3     580      TIP3     H2       HT       0.417000       1.00800           0
     19091 TIP3     581      TIP3     OH2      OT      -0.834000       15.9994           0
     19092 TIP3     581      TIP3     H1       HT       0.417000       1.00800           0
     19093 TIP3     581      TIP3     H2       HT       0.417000       1.00800           0
     19094 TIP3     582      TIP3     OH2      OT      -0.834000       15.9994           0
     19095 TIP3     582      TIP3     H1       HT       0.417000       1.00800           0
     19096 TIP3     582      TIP3     H2       HT       0.417000       1.00800           0
     19097 TIP3     583      TIP3     OH2      OT      -0.834000       15.9994           0
     19098 TIP3     583      TIP3     H1       HT       0.417000       1.00800           0
     19099 TIP3     583      TIP3     H2       HT       0.417000       1.00800           0
     19100 TIP3     584      TIP3     OH2      OT      -0.834000       15.9994           0
     19101 TIP3     584      TIP3     H1       HT       0.417000       1.00800           0
     19102 TIP3     584      TIP3     H2       HT       0.417000       1.00800           0
     19103 TIP3     585      TIP3     OH2      OT      -0.834000       15.9994           0
     19104 TIP3     585      TIP3     H1       HT       0.417000       1.00800           0
     19105 TIP3     585      TIP3     H2       HT       0.417000       1.00800           0
     19106 TIP3     586      TIP3     OH2      OT      -0.834000       15.9994           0
     19107 TIP3     586      TIP3     H1       HT       0.417000       1.00800           0
     19108 TIP3     586      TIP3     H2       HT       0.417000       1.00800           0
     19109 TIP3     587      TIP3     OH2      OT      -0.834000       15.9994           0
     19110 TIP3     587      TIP3     H1       HT       0.417000       1.00800           0
     19111 TIP3     587      TIP3     H2       HT       0.417000       1.00800           0
     19112 TIP3     588      TIP3     OH2      OT      -0.834000       15.9994           0
     19113 TIP3     588      TIP3     H1       HT       0.417000       1.00800           0
     19114 TIP3     588      TIP3     H2       HT       0.417000       1.00800           0
     19115 TIP3     589      TIP3     OH2      OT      -0.834000       15.9994           0
     19116 TIP3     589      TIP3     H1       HT       0.417000       1.00800           0
     19117 TIP3     589      TIP3     H2       HT       0.417000       1.00800           0
     19118 TIP3     590      TIP3     OH2      OT      -0.834000       15.9994           0
     19119 TIP3     590      TIP3     H1       HT       0.417000       1.00800           0
     19120 TIP3     590      TIP3     H2       HT       0.417000       1.00800           0
     19121 TIP3     591      TIP3     OH2      OT      -0.834000       15.9994           0
     19122 TIP3     591      TIP3     H1       HT       0.417000       1.00800           0
     19123 TIP3     591      TIP3     H2       HT       0.417000       1.00800           0
     19124 TIP3     592      TIP3     OH2      OT      -0.834000       15.9994           0
     19125 TIP3     592      TIP3     H1       HT       0.417000       1.00800           0
     19126 TIP3     592      TIP3     H2       HT       0.417000       1.00800           0
     19127 TIP3     593      TIP3     OH2      OT      -0.834000       15.9994           0
     19128 TIP3     593      TIP3     H1       HT       0.417000       1.00800           0
     19129 TIP3     593      TIP3     H2       HT       0.417000       1.00800           0
     19130 TIP3     594      TIP3     OH2      OT      -0.834000       15.9994           0
     19131 TIP3     594      TIP3     H1       HT       0.417000       1.00800           0
     19132 TIP3     594      TIP3     H2       HT       0.417000       1.00800           0
     19133 TIP3     595      TIP3     OH2      OT      -0.834000       15.9994           0
     19134 TIP3     595      TIP3     H1       HT       0.417000       1.00800           0
     19135 TIP3     595      TIP3     H2       HT       0.417000       1.00800           0
     19136 TIP3     596      TIP3     OH2      OT      -0.834000       15.9994           0
     19137 TIP3     596      TIP3     H1       HT       0.417000       1.00800           0
     19138 TIP3     596      TIP3     H2       HT       0.417000       1.00800           0
     19139 TIP3     597      TIP3     OH2      OT      -0.834000       15.9994           0
     19140 TIP3     597      TIP3     H1       HT       0.417000       1.00800           0
     19141 TIP3     597      TIP3     H2       HT       0.417000       1.00800           0
     19142 TIP3     598      TIP3     OH2      OT      -0.834000       15.9994           0
     19143 TIP3     598      TIP3     H1       HT       0.417000       1.00800           0
     19144 TIP3     598      TIP3     H2       HT       0.417000       1.00800           0
     19145 TIP3     599      TIP3     OH2      OT      -0.834000       15.9994           0
     19146 TIP3     599      TIP3     H1       HT       0.417000       1.00800           0
     19147 TIP3     599      TIP3     H2       HT       0.417000       1.00800           0
     19148 TIP3     600      TIP3     OH2      OT      -0.834000       15.9994           0
     19149 TIP3     600      TIP3     H1       HT       0.417000       1.00800           0
     19150 TIP3     600      TIP3     H2       HT       0.417000       1.00800           0
     19151 TIP3     601      TIP3     OH2      OT      -0.834000       15.9994           0
     19152 TIP3     601      TIP3     H1       HT       0.417000       1.00800           0
     19153 TIP3     601      TIP3     H2       HT       0.417000       1.00800           0
     19154 TIP3     602      TIP3     OH2      OT      -0.834000       15.9994           0
     19155 TIP3     602      TIP3     H1       HT       0.417000       1.00800           0
     19156 TIP3     602      TIP3     H2       HT       0.417000       1.00800           0
     19157 TIP3     603      TIP3     OH2      OT      -0.834000       15.9994           0
     19158 TIP3     603      TIP3     H1       HT       0.417000       1.00800           0
     19159 TIP3     603      TIP3     H2       HT       0.417000       1.00800           0
     19160 TIP3     604      TIP3     OH2      OT      -0.834000       15.9994           0
     19161 TIP3     604      TIP3     H1       HT       0.417000       1.00800           0
     19162 TIP3     604      TIP3     H2       HT       0.417000       1.00800           0
     19163 TIP3     605      TIP3     OH2      OT      -0.834000       15.9994           0
     19164 TIP3     605      TIP3     H1       HT       0.417000       1.00800           0
     19165 TIP3     605      TIP3     H2       HT       0.417000       1.00800           0
     19166 TIP3     606      TIP3     OH2      OT      -0.834000       15.9994           0
     19167 TIP3     606      TIP3     H1       HT       0.417000       1.00800           0
     19168 TIP3     606      TIP3     H2       HT       0.417000       1.00800           0
     19169 TIP3     607      TIP3     OH2      OT      -0.834000       15.9994           0
     19170 TIP3     607      TIP3     H1       HT       0.417000       1.00800           0
     19171 TIP3     607      TIP3     H2       HT       0.417000       1.00800           0
     19172 TIP3     608      TIP3     OH2      OT      -0.834000       15.9994           0
     19173 TIP3     608      TIP3     H1       HT       0.417000       1.00800           0
     19174 TIP3     608      TIP3     H2       HT       0.417000       1.00800           0
     19175 TIP3     609      TIP3     OH2      OT      -0.834000       15.9994           0
     19176 TIP3     609      TIP3     H1       HT       0.417000       1.00800           0
     19177 TIP3     609      TIP3     H2       HT       0.417000       1.00800           0
     19178 TIP3     610      TIP3     OH2      OT      -0.834000       15.9994           0
     19179 TIP3     610      TIP3     H1       HT       0.417000       1.00800           0
     19180 TIP3     610      TIP3     H2       HT       0.417000       1.00800           0
     19181 TIP3     611      TIP3     OH2      OT      -0.834000       15.9994           0
     19182 TIP3     611      TIP3     H1       HT       0.417000       1.00800           0
     19183 TIP3     611      TIP3     H2       HT       0.417000       1.00800           0
     19184 TIP3     612      TIP3     OH2      OT      -0.834000       15.9994           0
     19185 TIP3     612      TIP3     H1       HT       0.417000       1.00800           0
     19186 TIP3     612      TIP3     H2       HT       0.417000       1.00800           0
     19187 TIP3     613      TIP3     OH2      OT      -0.834000       15.9994           0
     19188 TIP3     613      TIP3     H1       HT       0.417000       1.00800           0
     19189 TIP3     613      TIP3     H2       HT       0.417000       1.00800           0
     19190 TIP3     614      TIP3     OH2      OT      -0.834000       15.9994           0
     19191 TIP3     614      TIP3     H1       HT       0.417000       1.00800           0
     19192 TIP3     614      TIP3     H2       HT       0.417000       1.00800           0
     19193 TIP3     615      TIP3     OH2      OT      -0.834000       15.9994           0
     19194 TIP3     615      TIP3     H1       HT       0.417000       1.00800           0
     19195 TIP3     615      TIP3     H2       HT       0.417000       1.00800           0
     19196 TIP3     616      TIP3     OH2      OT      -0.834000       15.9994           0
     19197 TIP3     616      TIP3     H1       HT       0.417000       1.00800           0
     19198 TIP3     616      TIP3     H2       HT       0.417000       1.00800           0
     19199 TIP3     617      TIP3     OH2      OT      -0.834000       15.9994           0
     19200 TIP3     617      TIP3     H1       HT       0.417000       1.00800           0
     19201 TIP3     617      TIP3     H2       HT       0.417000       1.00800           0
     19202 TIP3     618      TIP3     OH2      OT      -0.834000       15.9994           0
     19203 TIP3     618      TIP3     H1       HT       0.417000       1.00800           0
     19204 TIP3     618      TIP3     H2       HT       0.417000       1.00800           0
     19205 TIP3     619      TIP3     OH2      OT      -0.834000       15.9994           0
     19206 TIP3     619      TIP3     H1       HT       0.417000       1.00800           0
     19207 TIP3     619      TIP3     H2       HT       0.417000       1.00800           0
     19208 TIP3     620      TIP3     OH2      OT      -0.834000       15.9994           0
     19209 TIP3     620      TIP3     H1       HT       0.417000       1.00800           0
     19210 TIP3     620      TIP3     H2       HT       0.417000       1.00800           0
     19211 TIP3     621      TIP3     OH2      OT      -0.834000       15.9994           0
     19212 TIP3     621      TIP3     H1       HT       0.417000       1.00800           0
     19213 TIP3     621      TIP3     H2       HT       0.417000       1.00800           0
     19214 TIP3     622      TIP3     OH2      OT      -0.834000       15.9994           0
     19215 TIP3     622      TIP3     H1       HT       0.417000       1.00800           0
     19216 TIP3     622      TIP3     H2       HT       0.417000       1.00800           0
     19217 TIP3     623      TIP3     OH2      OT      -0.834000       15.9994           0
     19218 TIP3     623      TIP3     H1       HT       0.417000       1.00800           0
     19219 TIP3     623      TIP3     H2       HT       0.417000       1.00800           0
     19220 TIP3     624      TIP3     OH2      OT      -0.834000       15.9994           0
     19221 TIP3     624      TIP3     H1       HT       0.417000       1.00800           0
     19222 TIP3     624      TIP3     H2       HT       0.417000       1.00800           0
     19223 TIP3     625      TIP3     OH2      OT      -0.834000       15.9994           0
     19224 TIP3     625      TIP3     H1       HT       0.417000       1.00800           0
     19225 TIP3     625      TIP3     H2       HT       0.417000       1.00800           0
     19226 TIP3     626      TIP3     OH2      OT      -0.834000       15.9994           0
     19227 TIP3     626      TIP3     H1       HT       0.417000       1.00800           0
     19228 TIP3     626      TIP3     H2       HT       0.417000       1.00800           0
     19229 TIP3     627      TIP3     OH2      OT      -0.834000       15.9994           0
     19230 TIP3     627      TIP3     H1       HT       0.417000       1.00800           0
     19231 TIP3     627      TIP3     H2       HT       0.417000       1.00800           0
     19232 TIP3     628      TIP3     OH2      OT      -0.834000       15.9994           0
     19233 TIP3     628      TIP3     H1       HT       0.417000       1.00800           0
     19234 TIP3     628      TIP3     H2       HT       0.417000       1.00800           0
     19235 TIP3     629      TIP3     OH2      OT      -0.834000       15.9994           0
     19236 TIP3     629      TIP3     H1       HT       0.417000       1.00800           0
     19237 TIP3     629      TIP3     H2       HT       0.417000       1.00800           0
     19238 TIP3     630      TIP3     OH2      OT      -0.834000       15.9994           0
     19239 TIP3     630      TIP3     H1       HT       0.417000       1.00800           0
     19240 TIP3     630      TIP3     H2       HT       0.417000       1.00800           0
     19241 TIP3     631      TIP3     OH2      OT      -0.834000       15.9994           0
     19242 TIP3     631      TIP3     H1       HT       0.417000       1.00800           0
     19243 TIP3     631      TIP3     H2       HT       0.417000       1.00800           0
     19244 TIP3     632      TIP3     OH2      OT      -0.834000       15.9994           0
     19245 TIP3     632      TIP3     H1       HT       0.417000       1.00800           0
     19246 TIP3     632      TIP3     H2       HT       0.417000       1.00800           0
     19247 TIP3     633      TIP3     OH2      OT      -0.834000       15.9994           0
     19248 TIP3     633      TIP3     H1       HT       0.417000       1.00800           0
     19249 TIP3     633      TIP3     H2       HT       0.417000       1.00800           0
     19250 TIP3     634      TIP3     OH2      OT      -0.834000       15.9994           0
     19251 TIP3     634      TIP3     H1       HT       0.417000       1.00800           0
     19252 TIP3     634      TIP3     H2       HT       0.417000       1.00800           0
     19253 TIP3     635      TIP3     OH2      OT      -0.834000       15.9994           0
     19254 TIP3     635      TIP3     H1       HT       0.417000       1.00800           0
     19255 TIP3     635      TIP3     H2       HT       0.417000       1.00800           0
     19256 TIP3     636      TIP3     OH2      OT      -0.834000       15.9994           0
     19257 TIP3     636      TIP3     H1       HT       0.417000       1.00800           0
     19258 TIP3     636      TIP3     H2       HT       0.417000       1.00800           0
     19259 TIP3     637      TIP3     OH2      OT      -0.834000       15.9994           0
     19260 TIP3     637      TIP3     H1       HT       0.417000       1.00800           0
     19261 TIP3     637      TIP3     H2       HT       0.417000       1.00800           0
     19262 TIP3     638      TIP3     OH2      OT      -0.834000       15.9994           0
     19263 TIP3     638      TIP3     H1       HT       0.417000       1.00800           0
     19264 TIP3     638      TIP3     H2       HT       0.417000       1.00800           0
     19265 TIP3     639      TIP3     OH2      OT      -0.834000       15.9994           0
     19266 TIP3     639      TIP3     H1       HT       0.417000       1.00800           0
     19267 TIP3     639      TIP3     H2       HT       0.417000       1.00800           0
     19268 TIP3     640      TIP3     OH2      OT      -0.834000       15.9994           0
     19269 TIP3     640      TIP3     H1       HT       0.417000       1.00800           0
     19270 TIP3     640      TIP3     H2       HT       0.417000       1.00800           0
     19271 TIP3     641      TIP3     OH2      OT      -0.834000       15.9994           0
     19272 TIP3     641      TIP3     H1       HT       0.417000       1.00800           0
     19273 TIP3     641      TIP3     H2       HT       0.417000       1.00800           0
     19274 TIP3     642      TIP3     OH2      OT      -0.834000       15.9994           0
     19275 TIP3     642      TIP3     H1       HT       0.417000       1.00800           0
     19276 TIP3     642      TIP3     H2       HT       0.417000       1.00800           0
     19277 TIP3     643      TIP3     OH2      OT      -0.834000       15.9994           0
     19278 TIP3     643      TIP3     H1       HT       0.417000       1.00800           0
     19279 TIP3     643      TIP3     H2       HT       0.417000       1.00800           0
     19280 TIP3     644      TIP3     OH2      OT      -0.834000       15.9994           0
     19281 TIP3     644      TIP3     H1       HT       0.417000       1.00800           0
     19282 TIP3     644      TIP3     H2       HT       0.417000       1.00800           0
     19283 TIP3     645      TIP3     OH2      OT      -0.834000       15.9994           0
     19284 TIP3     645      TIP3     H1       HT       0.417000       1.00800           0
     19285 TIP3     645      TIP3     H2       HT       0.417000       1.00800           0
     19286 TIP3     646      TIP3     OH2      OT      -0.834000       15.9994           0
     19287 TIP3     646      TIP3     H1       HT       0.417000       1.00800           0
     19288 TIP3     646      TIP3     H2       HT       0.417000       1.00800           0
     19289 TIP3     647      TIP3     OH2      OT      -0.834000       15.9994           0
     19290 TIP3     647      TIP3     H1       HT       0.417000       1.00800           0
     19291 TIP3     647      TIP3     H2       HT       0.417000       1.00800           0
     19292 TIP3     648      TIP3     OH2      OT      -0.834000       15.9994           0
     19293 TIP3     648      TIP3     H1       HT       0.417000       1.00800           0
     19294 TIP3     648      TIP3     H2       HT       0.417000       1.00800           0
     19295 TIP3     649      TIP3     OH2      OT      -0.834000       15.9994           0
     19296 TIP3     649      TIP3     H1       HT       0.417000       1.00800           0
     19297 TIP3     649      TIP3     H2       HT       0.417000       1.00800           0
     19298 TIP3     650      TIP3     OH2      OT      -0.834000       15.9994           0
     19299 TIP3     650      TIP3     H1       HT       0.417000       1.00800           0
     19300 TIP3     650      TIP3     H2       HT       0.417000       1.00800           0
     19301 TIP3     651      TIP3     OH2      OT      -0.834000       15.9994           0
     19302 TIP3     651      TIP3     H1       HT       0.417000       1.00800           0
     19303 TIP3     651      TIP3     H2       HT       0.417000       1.00800           0
     19304 TIP3     652      TIP3     OH2      OT      -0.834000       15.9994           0
     19305 TIP3     652      TIP3     H1       HT       0.417000       1.00800           0
     19306 TIP3     652      TIP3     H2       HT       0.417000       1.00800           0
     19307 TIP3     653      TIP3     OH2      OT      -0.834000       15.9994           0
     19308 TIP3     653      TIP3     H1       HT       0.417000       1.00800           0
     19309 TIP3     653      TIP3     H2       HT       0.417000       1.00800           0
     19310 TIP3     654      TIP3     OH2      OT      -0.834000       15.9994           0
     19311 TIP3     654      TIP3     H1       HT       0.417000       1.00800           0
     19312 TIP3     654      TIP3     H2       HT       0.417000       1.00800           0
     19313 TIP3     655      TIP3     OH2      OT      -0.834000       15.9994           0
     19314 TIP3     655      TIP3     H1       HT       0.417000       1.00800           0
     19315 TIP3     655      TIP3     H2       HT       0.417000       1.00800           0
     19316 TIP3     656      TIP3     OH2      OT      -0.834000       15.9994           0
     19317 TIP3     656      TIP3     H1       HT       0.417000       1.00800           0
     19318 TIP3     656      TIP3     H2       HT       0.417000       1.00800           0
     19319 TIP3     657      TIP3     OH2      OT      -0.834000       15.9994           0
     19320 TIP3     657      TIP3     H1       HT       0.417000       1.00800           0
     19321 TIP3     657      TIP3     H2       HT       0.417000       1.00800           0
     19322 TIP3     658      TIP3     OH2      OT      -0.834000       15.9994           0
     19323 TIP3     658      TIP3     H1       HT       0.417000       1.00800           0
     19324 TIP3     658      TIP3     H2       HT       0.417000       1.00800           0
     19325 TIP3     659      TIP3     OH2      OT      -0.834000       15.9994           0
     19326 TIP3     659      TIP3     H1       HT       0.417000       1.00800           0
     19327 TIP3     659      TIP3     H2       HT       0.417000       1.00800           0
     19328 TIP3     660      TIP3     OH2      OT      -0.834000       15.9994           0
     19329 TIP3     660      TIP3     H1       HT       0.417000       1.00800           0
     19330 TIP3     660      TIP3     H2       HT       0.417000       1.00800           0
     19331 TIP3     661      TIP3     OH2      OT      -0.834000       15.9994           0
     19332 TIP3     661      TIP3     H1       HT       0.417000       1.00800           0
     19333 TIP3     661      TIP3     H2       HT       0.417000       1.00800           0
     19334 TIP3     662      TIP3     OH2      OT      -0.834000       15.9994           0
     19335 TIP3     662      TIP3     H1       HT       0.417000       1.00800           0
     19336 TIP3     662      TIP3     H2       HT       0.417000       1.00800           0
     19337 TIP3     663      TIP3     OH2      OT      -0.834000       15.9994           0
     19338 TIP3     663      TIP3     H1       HT       0.417000       1.00800           0
     19339 TIP3     663      TIP3     H2       HT       0.417000       1.00800           0
     19340 TIP3     664      TIP3     OH2      OT      -0.834000       15.9994           0
     19341 TIP3     664      TIP3     H1       HT       0.417000       1.00800           0
     19342 TIP3     664      TIP3     H2       HT       0.417000       1.00800           0
     19343 TIP3     665      TIP3     OH2      OT      -0.834000       15.9994           0
     19344 TIP3     665      TIP3     H1       HT       0.417000       1.00800           0
     19345 TIP3     665      TIP3     H2       HT       0.417000       1.00800           0
     19346 TIP3     666      TIP3     OH2      OT      -0.834000       15.9994           0
     19347 TIP3     666      TIP3     H1       HT       0.417000       1.00800           0
     19348 TIP3     666      TIP3     H2       HT       0.417000       1.00800           0
     19349 TIP3     667      TIP3     OH2      OT      -0.834000       15.9994           0
     19350 TIP3     667      TIP3     H1       HT       0.417000       1.00800           0
     19351 TIP3     667      TIP3     H2       HT       0.417000       1.00800           0
     19352 TIP3     668      TIP3     OH2      OT      -0.834000       15.9994           0
     19353 TIP3     668      TIP3     H1       HT       0.417000       1.00800           0
     19354 TIP3     668      TIP3     H2       HT       0.417000       1.00800           0
     19355 TIP3     669      TIP3     OH2      OT      -0.834000       15.9994           0
     19356 TIP3     669      TIP3     H1       HT       0.417000       1.00800           0
     19357 TIP3     669      TIP3     H2       HT       0.417000       1.00800           0
     19358 TIP3     670      TIP3     OH2      OT      -0.834000       15.9994           0
     19359 TIP3     670      TIP3     H1       HT       0.417000       1.00800           0
     19360 TIP3     670      TIP3     H2       HT       0.417000       1.00800           0
     19361 TIP3     671      TIP3     OH2      OT      -0.834000       15.9994           0
     19362 TIP3     671      TIP3     H1       HT       0.417000       1.00800           0
     19363 TIP3     671      TIP3     H2       HT       0.417000       1.00800           0
     19364 TIP3     672      TIP3     OH2      OT      -0.834000       15.9994           0
     19365 TIP3     672      TIP3     H1       HT       0.417000       1.00800           0
     19366 TIP3     672      TIP3     H2       HT       0.417000       1.00800           0
     19367 TIP3     673      TIP3     OH2      OT      -0.834000       15.9994           0
     19368 TIP3     673      TIP3     H1       HT       0.417000       1.00800           0
     19369 TIP3     673      TIP3     H2       HT       0.417000       1.00800           0
     19370 TIP3     674      TIP3     OH2      OT      -0.834000       15.9994           0
     19371 TIP3     674      TIP3     H1       HT       0.417000       1.00800           0
     19372 TIP3     674      TIP3     H2       HT       0.417000       1.00800           0
     19373 TIP3     675      TIP3     OH2      OT      -0.834000       15.9994           0
     19374 TIP3     675      TIP3     H1       HT       0.417000       1.00800           0
     19375 TIP3     675      TIP3     H2       HT       0.417000       1.00800           0
     19376 TIP3     676      TIP3     OH2      OT      -0.834000       15.9994           0
     19377 TIP3     676      TIP3     H1       HT       0.417000       1.00800           0
     19378 TIP3     676      TIP3     H2       HT       0.417000       1.00800           0
     19379 TIP3     677      TIP3     OH2      OT      -0.834000       15.9994           0
     19380 TIP3     677      TIP3     H1       HT       0.417000       1.00800           0
     19381 TIP3     677      TIP3     H2       HT       0.417000       1.00800           0
     19382 TIP3     678      TIP3     OH2      OT      -0.834000       15.9994           0
     19383 TIP3     678      TIP3     H1       HT       0.417000       1.00800           0
     19384 TIP3     678      TIP3     H2       HT       0.417000       1.00800           0
     19385 TIP3     679      TIP3     OH2      OT      -0.834000       15.9994           0
     19386 TIP3     679      TIP3     H1       HT       0.417000       1.00800           0
     19387 TIP3     679      TIP3     H2       HT       0.417000       1.00800           0
     19388 TIP3     680      TIP3     OH2      OT      -0.834000       15.9994           0
     19389 TIP3     680      TIP3     H1       HT       0.417000       1.00800           0
     19390 TIP3     680      TIP3     H2       HT       0.417000       1.00800           0
     19391 TIP3     681      TIP3     OH2      OT      -0.834000       15.9994           0
     19392 TIP3     681      TIP3     H1       HT       0.417000       1.00800           0
     19393 TIP3     681      TIP3     H2       HT       0.417000       1.00800           0
     19394 TIP3     682      TIP3     OH2      OT      -0.834000       15.9994           0
     19395 TIP3     682      TIP3     H1       HT       0.417000       1.00800           0
     19396 TIP3     682      TIP3     H2       HT       0.417000       1.00800           0
     19397 TIP3     683      TIP3     OH2      OT      -0.834000       15.9994           0
     19398 TIP3     683      TIP3     H1       HT       0.417000       1.00800           0
     19399 TIP3     683      TIP3     H2       HT       0.417000       1.00800           0
     19400 TIP3     684      TIP3     OH2      OT      -0.834000       15.9994           0
     19401 TIP3     684      TIP3     H1       HT       0.417000       1.00800           0
     19402 TIP3     684      TIP3     H2       HT       0.417000       1.00800           0
     19403 TIP3     685      TIP3     OH2      OT      -0.834000       15.9994           0
     19404 TIP3     685      TIP3     H1       HT       0.417000       1.00800           0
     19405 TIP3     685      TIP3     H2       HT       0.417000       1.00800           0
     19406 TIP3     686      TIP3     OH2      OT      -0.834000       15.9994           0
     19407 TIP3     686      TIP3     H1       HT       0.417000       1.00800           0
     19408 TIP3     686      TIP3     H2       HT       0.417000       1.00800           0
     19409 TIP3     687      TIP3     OH2      OT      -0.834000       15.9994           0
     19410 TIP3     687      TIP3     H1       HT       0.417000       1.00800           0
     19411 TIP3     687      TIP3     H2       HT       0.417000       1.00800           0
     19412 TIP3     688      TIP3     OH2      OT      -0.834000       15.9994           0
     19413 TIP3     688      TIP3     H1       HT       0.417000       1.00800           0
     19414 TIP3     688      TIP3     H2       HT       0.417000       1.00800           0
     19415 TIP3     689      TIP3     OH2      OT      -0.834000       15.9994           0
     19416 TIP3     689      TIP3     H1       HT       0.417000       1.00800           0
     19417 TIP3     689      TIP3     H2       HT       0.417000       1.00800           0
     19418 TIP3     690      TIP3     OH2      OT      -0.834000       15.9994           0
     19419 TIP3     690      TIP3     H1       HT       0.417000       1.00800           0
     19420 TIP3     690      TIP3     H2       HT       0.417000       1.00800           0
     19421 TIP3     691      TIP3     OH2      OT      -0.834000       15.9994           0
     19422 TIP3     691      TIP3     H1       HT       0.417000       1.00800           0
     19423 TIP3     691      TIP3     H2       HT       0.417000       1.00800           0
     19424 TIP3     692      TIP3     OH2      OT      -0.834000       15.9994           0
     19425 TIP3     692      TIP3     H1       HT       0.417000       1.00800           0
     19426 TIP3     692      TIP3     H2       HT       0.417000       1.00800           0
     19427 TIP3     693      TIP3     OH2      OT      -0.834000       15.9994           0
     19428 TIP3     693      TIP3     H1       HT       0.417000       1.00800           0
     19429 TIP3     693      TIP3     H2       HT       0.417000       1.00800           0
     19430 TIP3     694      TIP3     OH2      OT      -0.834000       15.9994           0
     19431 TIP3     694      TIP3     H1       HT       0.417000       1.00800           0
     19432 TIP3     694      TIP3     H2       HT       0.417000       1.00800           0
     19433 TIP3     695      TIP3     OH2      OT      -0.834000       15.9994           0
     19434 TIP3     695      TIP3     H1       HT       0.417000       1.00800           0
     19435 TIP3     695      TIP3     H2       HT       0.417000       1.00800           0
     19436 TIP3     696      TIP3     OH2      OT      -0.834000       15.9994           0
     19437 TIP3     696      TIP3     H1       HT       0.417000       1.00800           0
     19438 TIP3     696      TIP3     H2       HT       0.417000       1.00800           0
     19439 TIP3     697      TIP3     OH2      OT      -0.834000       15.9994           0
     19440 TIP3     697      TIP3     H1       HT       0.417000       1.00800           0
     19441 TIP3     697      TIP3     H2       HT       0.417000       1.00800           0
     19442 TIP3     698      TIP3     OH2      OT      -0.834000       15.9994           0
     19443 TIP3     698      TIP3     H1       HT       0.417000       1.00800           0
     19444 TIP3     698      TIP3     H2       HT       0.417000       1.00800           0
     19445 TIP3     699      TIP3     OH2      OT      -0.834000       15.9994           0
     19446 TIP3     699      TIP3     H1       HT       0.417000       1.00800           0
     19447 TIP3     699      TIP3     H2       HT       0.417000       1.00800           0
     19448 TIP3     700      TIP3     OH2      OT      -0.834000       15.9994           0
     19449 TIP3     700      TIP3     H1       HT       0.417000       1.00800           0
     19450 TIP3     700      TIP3     H2       HT       0.417000       1.00800           0
     19451 TIP3     701      TIP3     OH2      OT      -0.834000       15.9994           0
     19452 TIP3     701      TIP3     H1       HT       0.417000       1.00800           0
     19453 TIP3     701      TIP3     H2       HT       0.417000       1.00800           0
     19454 TIP3     702      TIP3     OH2      OT      -0.834000       15.9994           0
     19455 TIP3     702      TIP3     H1       HT       0.417000       1.00800           0
     19456 TIP3     702      TIP3     H2       HT       0.417000       1.00800           0
     19457 TIP3     703      TIP3     OH2      OT      -0.834000       15.9994           0
     19458 TIP3     703      TIP3     H1       HT       0.417000       1.00800           0
     19459 TIP3     703      TIP3     H2       HT       0.417000       1.00800           0
     19460 TIP3     704      TIP3     OH2      OT      -0.834000       15.9994           0
     19461 TIP3     704      TIP3     H1       HT       0.417000       1.00800           0
     19462 TIP3     704      TIP3     H2       HT       0.417000       1.00800           0
     19463 TIP3     705      TIP3     OH2      OT      -0.834000       15.9994           0
     19464 TIP3     705      TIP3     H1       HT       0.417000       1.00800           0
     19465 TIP3     705      TIP3     H2       HT       0.417000       1.00800           0
     19466 TIP3     706      TIP3     OH2      OT      -0.834000       15.9994           0
     19467 TIP3     706      TIP3     H1       HT       0.417000       1.00800           0
     19468 TIP3     706      TIP3     H2       HT       0.417000       1.00800           0
     19469 TIP3     707      TIP3     OH2      OT      -0.834000       15.9994           0
     19470 TIP3     707      TIP3     H1       HT       0.417000       1.00800           0
     19471 TIP3     707      TIP3     H2       HT       0.417000       1.00800           0
     19472 TIP3     708      TIP3     OH2      OT      -0.834000       15.9994           0
     19473 TIP3     708      TIP3     H1       HT       0.417000       1.00800           0
     19474 TIP3     708      TIP3     H2       HT       0.417000       1.00800           0
     19475 TIP3     709      TIP3     OH2      OT      -0.834000       15.9994           0
     19476 TIP3     709      TIP3     H1       HT       0.417000       1.00800           0
     19477 TIP3     709      TIP3     H2       HT       0.417000       1.00800           0
     19478 TIP3     710      TIP3     OH2      OT      -0.834000       15.9994           0
     19479 TIP3     710      TIP3     H1       HT       0.417000       1.00800           0
     19480 TIP3     710      TIP3     H2       HT       0.417000       1.00800           0
     19481 TIP3     711      TIP3     OH2      OT      -0.834000       15.9994           0
     19482 TIP3     711      TIP3     H1       HT       0.417000       1.00800           0
     19483 TIP3     711      TIP3     H2       HT       0.417000       1.00800           0
     19484 TIP3     712      TIP3     OH2      OT      -0.834000       15.9994           0
     19485 TIP3     712      TIP3     H1       HT       0.417000       1.00800           0
     19486 TIP3     712      TIP3     H2       HT       0.417000       1.00800           0
     19487 TIP3     713      TIP3     OH2      OT      -0.834000       15.9994           0
     19488 TIP3     713      TIP3     H1       HT       0.417000       1.00800           0
     19489 TIP3     713      TIP3     H2       HT       0.417000       1.00800           0
     19490 TIP3     714      TIP3     OH2      OT      -0.834000       15.9994           0
     19491 TIP3     714      TIP3     H1       HT       0.417000       1.00800           0
     19492 TIP3     714      TIP3     H2       HT       0.417000       1.00800           0
     19493 TIP3     715      TIP3     OH2      OT      -0.834000       15.9994           0
     19494 TIP3     715      TIP3     H1       HT       0.417000       1.00800           0
     19495 TIP3     715      TIP3     H2       HT       0.417000       1.00800           0
     19496 TIP3     716      TIP3     OH2      OT      -0.834000       15.9994           0
     19497 TIP3     716      TIP3     H1       HT       0.417000       1.00800           0
     19498 TIP3     716      TIP3     H2       HT       0.417000       1.00800           0
     19499 TIP3     717      TIP3     OH2      OT      -0.834000       15.9994           0
     19500 TIP3     717      TIP3     H1       HT       0.417000       1.00800           0
     19501 TIP3     717      TIP3     H2       HT       0.417000       1.00800           0
     19502 TIP3     718      TIP3     OH2      OT      -0.834000       15.9994           0
     19503 TIP3     718      TIP3     H1       HT       0.417000       1.00800           0
     19504 TIP3     718      TIP3     H2       HT       0.417000       1.00800           0
     19505 TIP3     719      TIP3     OH2      OT      -0.834000       15.9994           0
     19506 TIP3     719      TIP3     H1       HT       0.417000       1.00800           0
     19507 TIP3     719      TIP3     H2       HT       0.417000       1.00800           0
     19508 TIP3     720      TIP3     OH2      OT      -0.834000       15.9994           0
     19509 TIP3     720      TIP3     H1       HT       0.417000       1.00800           0
     19510 TIP3     720      TIP3     H2       HT       0.417000       1.00800           0
     19511 TIP3     721      TIP3     OH2      OT      -0.834000       15.9994           0
     19512 TIP3     721      TIP3     H1       HT       0.417000       1.00800           0
     19513 TIP3     721      TIP3     H2       HT       0.417000       1.00800           0
     19514 TIP3     722      TIP3     OH2      OT      -0.834000       15.9994           0
     19515 TIP3     722      TIP3     H1       HT       0.417000       1.00800           0
     19516 TIP3     722      TIP3     H2       HT       0.417000       1.00800           0
     19517 TIP3     723      TIP3     OH2      OT      -0.834000       15.9994           0
     19518 TIP3     723      TIP3     H1       HT       0.417000       1.00800           0
     19519 TIP3     723      TIP3     H2       HT       0.417000       1.00800           0
     19520 TIP3     724      TIP3     OH2      OT      -0.834000       15.9994           0
     19521 TIP3     724      TIP3     H1       HT       0.417000       1.00800           0
     19522 TIP3     724      TIP3     H2       HT       0.417000       1.00800           0
     19523 TIP3     725      TIP3     OH2      OT      -0.834000       15.9994           0
     19524 TIP3     725      TIP3     H1       HT       0.417000       1.00800           0
     19525 TIP3     725      TIP3     H2       HT       0.417000       1.00800           0
     19526 TIP3     726      TIP3     OH2      OT      -0.834000       15.9994           0
     19527 TIP3     726      TIP3     H1       HT       0.417000       1.00800           0
     19528 TIP3     726      TIP3     H2       HT       0.417000       1.00800           0
     19529 TIP3     727      TIP3     OH2      OT      -0.834000       15.9994           0
     19530 TIP3     727      TIP3     H1       HT       0.417000       1.00800           0
     19531 TIP3     727      TIP3     H2       HT       0.417000       1.00800           0
     19532 TIP3     728      TIP3     OH2      OT      -0.834000       15.9994           0
     19533 TIP3     728      TIP3     H1       HT       0.417000       1.00800           0
     19534 TIP3     728      TIP3     H2       HT       0.417000       1.00800           0
     19535 TIP3     729      TIP3     OH2      OT      -0.834000       15.9994           0
     19536 TIP3     729      TIP3     H1       HT       0.417000       1.00800           0
     19537 TIP3     729      TIP3     H2       HT       0.417000       1.00800           0
     19538 TIP3     730      TIP3     OH2      OT      -0.834000       15.9994           0
     19539 TIP3     730      TIP3     H1       HT       0.417000       1.00800           0
     19540 TIP3     730      TIP3     H2       HT       0.417000       1.00800           0
     19541 TIP3     731      TIP3     OH2      OT      -0.834000       15.9994           0
     19542 TIP3     731      TIP3     H1       HT       0.417000       1.00800           0
     19543 TIP3     731      TIP3     H2       HT       0.417000       1.00800           0
     19544 TIP3     732      TIP3     OH2      OT      -0.834000       15.9994           0
     19545 TIP3     732      TIP3     H1       HT       0.417000       1.00800           0
     19546 TIP3     732      TIP3     H2       HT       0.417000       1.00800           0
     19547 TIP3     733      TIP3     OH2      OT      -0.834000       15.9994           0
     19548 TIP3     733      TIP3     H1       HT       0.417000       1.00800           0
     19549 TIP3     733      TIP3     H2       HT       0.417000       1.00800           0
     19550 TIP3     734      TIP3     OH2      OT      -0.834000       15.9994           0
     19551 TIP3     734      TIP3     H1       HT       0.417000       1.00800           0
     19552 TIP3     734      TIP3     H2       HT       0.417000       1.00800           0
     19553 TIP3     735      TIP3     OH2      OT      -0.834000       15.9994           0
     19554 TIP3     735      TIP3     H1       HT       0.417000       1.00800           0
     19555 TIP3     735      TIP3     H2       HT       0.417000       1.00800           0
     19556 TIP3     736      TIP3     OH2      OT      -0.834000       15.9994           0
     19557 TIP3     736      TIP3     H1       HT       0.417000       1.00800           0
     19558 TIP3     736      TIP3     H2       HT       0.417000       1.00800           0
     19559 TIP3     737      TIP3     OH2      OT      -0.834000       15.9994           0
     19560 TIP3     737      TIP3     H1       HT       0.417000       1.00800           0
     19561 TIP3     737      TIP3     H2       HT       0.417000       1.00800           0
     19562 TIP3     738      TIP3     OH2      OT      -0.834000       15.9994           0
     19563 TIP3     738      TIP3     H1       HT       0.417000       1.00800           0
     19564 TIP3     738      TIP3     H2       HT       0.417000       1.00800           0
     19565 TIP3     739      TIP3     OH2      OT      -0.834000       15.9994           0
     19566 TIP3     739      TIP3     H1       HT       0.417000       1.00800           0
     19567 TIP3     739      TIP3     H2       HT       0.417000       1.00800           0
     19568 TIP3     740      TIP3     OH2      OT      -0.834000       15.9994           0
     19569 TIP3     740      TIP3     H1       HT       0.417000       1.00800           0
     19570 TIP3     740      TIP3     H2       HT       0.417000       1.00800           0
     19571 TIP3     741      TIP3     OH2      OT      -0.834000       15.9994           0
     19572 TIP3     741      TIP3     H1       HT       0.417000       1.00800           0
     19573 TIP3     741      TIP3     H2       HT       0.417000       1.00800           0
     19574 TIP3     742      TIP3     OH2      OT      -0.834000       15.9994           0
     19575 TIP3     742      TIP3     H1       HT       0.417000       1.00800           0
     19576 TIP3     742      TIP3     H2       HT       0.417000       1.00800           0
     19577 TIP3     743      TIP3     OH2      OT      -0.834000       15.9994           0
     19578 TIP3     743      TIP3     H1       HT       0.417000       1.00800           0
     19579 TIP3     743      TIP3     H2       HT       0.417000       1.00800           0
     19580 TIP3     744      TIP3     OH2      OT      -0.834000       15.9994           0
     19581 TIP3     744      TIP3     H1       HT       0.417000       1.00800           0
     19582 TIP3     744      TIP3     H2       HT       0.417000       1.00800           0
     19583 TIP3     745      TIP3     OH2      OT      -0.834000       15.9994           0
     19584 TIP3     745      TIP3     H1       HT       0.417000       1.00800           0
     19585 TIP3     745      TIP3     H2       HT       0.417000       1.00800           0
     19586 TIP3     746      TIP3     OH2      OT      -0.834000       15.9994           0
     19587 TIP3     746      TIP3     H1       HT       0.417000       1.00800           0
     19588 TIP3     746      TIP3     H2       HT       0.417000       1.00800           0
     19589 TIP3     747      TIP3     OH2      OT      -0.834000       15.9994           0
     19590 TIP3     747      TIP3     H1       HT       0.417000       1.00800           0
     19591 TIP3     747      TIP3     H2       HT       0.417000       1.00800           0
     19592 TIP3     748      TIP3     OH2      OT      -0.834000       15.9994           0
     19593 TIP3     748      TIP3     H1       HT       0.417000       1.00800           0
     19594 TIP3     748      TIP3     H2       HT       0.417000       1.00800           0
     19595 TIP3     749      TIP3     OH2      OT      -0.834000       15.9994           0
     19596 TIP3     749      TIP3     H1       HT       0.417000       1.00800           0
     19597 TIP3     749      TIP3     H2       HT       0.417000       1.00800           0
     19598 TIP3     750      TIP3     OH2      OT      -0.834000       15.9994           0
     19599 TIP3     750      TIP3     H1       HT       0.417000       1.00800           0
     19600 TIP3     750      TIP3     H2       HT       0.417000       1.00800           0
     19601 TIP3     751      TIP3     OH2      OT      -0.834000       15.9994           0
     19602 TIP3     751      TIP3     H1       HT       0.417000       1.00800           0
     19603 TIP3     751      TIP3     H2       HT       0.417000       1.00800           0
     19604 TIP3     752      TIP3     OH2      OT      -0.834000       15.9994           0
     19605 TIP3     752      TIP3     H1       HT       0.417000       1.00800           0
     19606 TIP3     752      TIP3     H2       HT       0.417000       1.00800           0
     19607 TIP3     753      TIP3     OH2      OT      -0.834000       15.9994           0
     19608 TIP3     753      TIP3     H1       HT       0.417000       1.00800           0
     19609 TIP3     753      TIP3     H2       HT       0.417000       1.00800           0
     19610 TIP3     754      TIP3     OH2      OT      -0.834000       15.9994           0
     19611 TIP3     754      TIP3     H1       HT       0.417000       1.00800           0
     19612 TIP3     754      TIP3     H2       HT       0.417000       1.00800           0
     19613 TIP3     755      TIP3     OH2      OT      -0.834000       15.9994           0
     19614 TIP3     755      TIP3     H1       HT       0.417000       1.00800           0
     19615 TIP3     755      TIP3     H2       HT       0.417000       1.00800           0
     19616 TIP3     756      TIP3     OH2      OT      -0.834000       15.9994           0
     19617 TIP3     756      TIP3     H1       HT       0.417000       1.00800           0
     19618 TIP3     756      TIP3     H2       HT       0.417000       1.00800           0
     19619 TIP3     757      TIP3     OH2      OT      -0.834000       15.9994           0
     19620 TIP3     757      TIP3     H1       HT       0.417000       1.00800           0
     19621 TIP3     757      TIP3     H2       HT       0.417000       1.00800           0
     19622 TIP3     758      TIP3     OH2      OT      -0.834000       15.9994           0
     19623 TIP3     758      TIP3     H1       HT       0.417000       1.00800           0
     19624 TIP3     758      TIP3     H2       HT       0.417000       1.00800           0
     19625 TIP3     759      TIP3     OH2      OT      -0.834000       15.9994           0
     19626 TIP3     759      TIP3     H1       HT       0.417000       1.00800           0
     19627 TIP3     759      TIP3     H2       HT       0.417000       1.00800           0
     19628 TIP3     760      TIP3     OH2      OT      -0.834000       15.9994           0
     19629 TIP3     760      TIP3     H1       HT       0.417000       1.00800           0
     19630 TIP3     760      TIP3     H2       HT       0.417000       1.00800           0
     19631 TIP3     761      TIP3     OH2      OT      -0.834000       15.9994           0
     19632 TIP3     761      TIP3     H1       HT       0.417000       1.00800           0
     19633 TIP3     761      TIP3     H2       HT       0.417000       1.00800           0
     19634 TIP3     762      TIP3     OH2      OT      -0.834000       15.9994           0
     19635 TIP3     762      TIP3     H1       HT       0.417000       1.00800           0
     19636 TIP3     762      TIP3     H2       HT       0.417000       1.00800           0
     19637 TIP3     763      TIP3     OH2      OT      -0.834000       15.9994           0
     19638 TIP3     763      TIP3     H1       HT       0.417000       1.00800           0
     19639 TIP3     763      TIP3     H2       HT       0.417000       1.00800           0
     19640 TIP3     764      TIP3     OH2      OT      -0.834000       15.9994           0
     19641 TIP3     764      TIP3     H1       HT       0.417000       1.00800           0
     19642 TIP3     764      TIP3     H2       HT       0.417000       1.00800           0
     19643 TIP3     765      TIP3     OH2      OT      -0.834000       15.9994           0
     19644 TIP3     765      TIP3     H1       HT       0.417000       1.00800           0
     19645 TIP3     765      TIP3     H2       HT       0.417000       1.00800           0
     19646 TIP3     766      TIP3     OH2      OT      -0.834000       15.9994           0
     19647 TIP3     766      TIP3     H1       HT       0.417000       1.00800           0
     19648 TIP3     766      TIP3     H2       HT       0.417000       1.00800           0
     19649 TIP3     767      TIP3     OH2      OT      -0.834000       15.9994           0
     19650 TIP3     767      TIP3     H1       HT       0.417000       1.00800           0
     19651 TIP3     767      TIP3     H2       HT       0.417000       1.00800           0
     19652 TIP3     768      TIP3     OH2      OT      -0.834000       15.9994           0
     19653 TIP3     768      TIP3     H1       HT       0.417000       1.00800           0
     19654 TIP3     768      TIP3     H2       HT       0.417000       1.00800           0
     19655 TIP3     769      TIP3     OH2      OT      -0.834000       15.9994           0
     19656 TIP3     769      TIP3     H1       HT       0.417000       1.00800           0
     19657 TIP3     769      TIP3     H2       HT       0.417000       1.00800           0
     19658 TIP3     770      TIP3     OH2      OT      -0.834000       15.9994           0
     19659 TIP3     770      TIP3     H1       HT       0.417000       1.00800           0
     19660 TIP3     770      TIP3     H2       HT       0.417000       1.00800           0
     19661 TIP3     771      TIP3     OH2      OT      -0.834000       15.9994           0
     19662 TIP3     771      TIP3     H1       HT       0.417000       1.00800           0
     19663 TIP3     771      TIP3     H2       HT       0.417000       1.00800           0
     19664 TIP3     772      TIP3     OH2      OT      -0.834000       15.9994           0
     19665 TIP3     772      TIP3     H1       HT       0.417000       1.00800           0
     19666 TIP3     772      TIP3     H2       HT       0.417000       1.00800           0
     19667 TIP3     773      TIP3     OH2      OT      -0.834000       15.9994           0
     19668 TIP3     773      TIP3     H1       HT       0.417000       1.00800           0
     19669 TIP3     773      TIP3     H2       HT       0.417000       1.00800           0
     19670 TIP3     774      TIP3     OH2      OT      -0.834000       15.9994           0
     19671 TIP3     774      TIP3     H1       HT       0.417000       1.00800           0
     19672 TIP3     774      TIP3     H2       HT       0.417000       1.00800           0
     19673 TIP3     775      TIP3     OH2      OT      -0.834000       15.9994           0
     19674 TIP3     775      TIP3     H1       HT       0.417000       1.00800           0
     19675 TIP3     775      TIP3     H2       HT       0.417000       1.00800           0
     19676 TIP3     776      TIP3     OH2      OT      -0.834000       15.9994           0
     19677 TIP3     776      TIP3     H1       HT       0.417000       1.00800           0
     19678 TIP3     776      TIP3     H2       HT       0.417000       1.00800           0
     19679 TIP3     777      TIP3     OH2      OT      -0.834000       15.9994           0
     19680 TIP3     777      TIP3     H1       HT       0.417000       1.00800           0
     19681 TIP3     777      TIP3     H2       HT       0.417000       1.00800           0
     19682 TIP3     778      TIP3     OH2      OT      -0.834000       15.9994           0
     19683 TIP3     778      TIP3     H1       HT       0.417000       1.00800           0
     19684 TIP3     778      TIP3     H2       HT       0.417000       1.00800           0
     19685 TIP3     779      TIP3     OH2      OT      -0.834000       15.9994           0
     19686 TIP3     779      TIP3     H1       HT       0.417000       1.00800           0
     19687 TIP3     779      TIP3     H2       HT       0.417000       1.00800           0
     19688 TIP3     780      TIP3     OH2      OT      -0.834000       15.9994           0
     19689 TIP3     780      TIP3     H1       HT       0.417000       1.00800           0
     19690 TIP3     780      TIP3     H2       HT       0.417000       1.00800           0
     19691 TIP3     781      TIP3     OH2      OT      -0.834000       15.9994           0
     19692 TIP3     781      TIP3     H1       HT       0.417000       1.00800           0
     19693 TIP3     781      TIP3     H2       HT       0.417000       1.00800           0
     19694 TIP3     782      TIP3     OH2      OT      -0.834000       15.9994           0
     19695 TIP3     782      TIP3     H1       HT       0.417000       1.00800           0
     19696 TIP3     782      TIP3     H2       HT       0.417000       1.00800           0
     19697 TIP3     783      TIP3     OH2      OT      -0.834000       15.9994           0
     19698 TIP3     783      TIP3     H1       HT       0.417000       1.00800           0
     19699 TIP3     783      TIP3     H2       HT       0.417000       1.00800           0
     19700 TIP3     784      TIP3     OH2      OT      -0.834000       15.9994           0
     19701 TIP3     784      TIP3     H1       HT       0.417000       1.00800           0
     19702 TIP3     784      TIP3     H2       HT       0.417000       1.00800           0
     19703 TIP3     785      TIP3     OH2      OT      -0.834000       15.9994           0
     19704 TIP3     785      TIP3     H1       HT       0.417000       1.00800           0
     19705 TIP3     785      TIP3     H2       HT       0.417000       1.00800           0
     19706 TIP3     786      TIP3     OH2      OT      -0.834000       15.9994           0
     19707 TIP3     786      TIP3     H1       HT       0.417000       1.00800           0
     19708 TIP3     786      TIP3     H2       HT       0.417000       1.00800           0
     19709 TIP3     787      TIP3     OH2      OT      -0.834000       15.9994           0
     19710 TIP3     787      TIP3     H1       HT       0.417000       1.00800           0
     19711 TIP3     787      TIP3     H2       HT       0.417000       1.00800           0
     19712 TIP3     788      TIP3     OH2      OT      -0.834000       15.9994           0
     19713 TIP3     788      TIP3     H1       HT       0.417000       1.00800           0
     19714 TIP3     788      TIP3     H2       HT       0.417000       1.00800           0
     19715 TIP3     789      TIP3     OH2      OT      -0.834000       15.9994           0
     19716 TIP3     789      TIP3     H1       HT       0.417000       1.00800           0
     19717 TIP3     789      TIP3     H2       HT       0.417000       1.00800           0
     19718 TIP3     790      TIP3     OH2      OT      -0.834000       15.9994           0
     19719 TIP3     790      TIP3     H1       HT       0.417000       1.00800           0
     19720 TIP3     790      TIP3     H2       HT       0.417000       1.00800           0
     19721 TIP3     791      TIP3     OH2      OT      -0.834000       15.9994           0
     19722 TIP3     791      TIP3     H1       HT       0.417000       1.00800           0
     19723 TIP3     791      TIP3     H2       HT       0.417000       1.00800           0
     19724 TIP3     792      TIP3     OH2      OT      -0.834000       15.9994           0
     19725 TIP3     792      TIP3     H1       HT       0.417000       1.00800           0
     19726 TIP3     792      TIP3     H2       HT       0.417000       1.00800           0
     19727 TIP3     793      TIP3     OH2      OT      -0.834000       15.9994           0
     19728 TIP3     793      TIP3     H1       HT       0.417000       1.00800           0
     19729 TIP3     793      TIP3     H2       HT       0.417000       1.00800           0
     19730 TIP3     794      TIP3     OH2      OT      -0.834000       15.9994           0
     19731 TIP3     794      TIP3     H1       HT       0.417000       1.00800           0
     19732 TIP3     794      TIP3     H2       HT       0.417000       1.00800           0
     19733 TIP3     795      TIP3     OH2      OT      -0.834000       15.9994           0
     19734 TIP3     795      TIP3     H1       HT       0.417000       1.00800           0
     19735 TIP3     795      TIP3     H2       HT       0.417000       1.00800           0
     19736 TIP3     796      TIP3     OH2      OT      -0.834000       15.9994           0
     19737 TIP3     796      TIP3     H1       HT       0.417000       1.00800           0
     19738 TIP3     796      TIP3     H2       HT       0.417000       1.00800           0
     19739 TIP3     797      TIP3     OH2      OT      -0.834000       15.9994           0
     19740 TIP3     797      TIP3     H1       HT       0.417000       1.00800           0
     19741 TIP3     797      TIP3     H2       HT       0.417000       1.00800           0
     19742 TIP3     798      TIP3     OH2      OT      -0.834000       15.9994           0
     19743 TIP3     798      TIP3     H1       HT       0.417000       1.00800           0
     19744 TIP3     798      TIP3     H2       HT       0.417000       1.00800           0
     19745 TIP3     799      TIP3     OH2      OT      -0.834000       15.9994           0
     19746 TIP3     799      TIP3     H1       HT       0.417000       1.00800           0
     19747 TIP3     799      TIP3     H2       HT       0.417000       1.00800           0
     19748 TIP3     800      TIP3     OH2      OT      -0.834000       15.9994           0
     19749 TIP3     800      TIP3     H1       HT       0.417000       1.00800           0
     19750 TIP3     800      TIP3     H2       HT       0.417000       1.00800           0
     19751 TIP3     801      TIP3     OH2      OT      -0.834000       15.9994           0
     19752 TIP3     801      TIP3     H1       HT       0.417000       1.00800           0
     19753 TIP3     801      TIP3     H2       HT       0.417000       1.00800           0
     19754 TIP3     802      TIP3     OH2      OT      -0.834000       15.9994           0
     19755 TIP3     802      TIP3     H1       HT       0.417000       1.00800           0
     19756 TIP3     802      TIP3     H2       HT       0.417000       1.00800           0
     19757 TIP3     803      TIP3     OH2      OT      -0.834000       15.9994           0
     19758 TIP3     803      TIP3     H1       HT       0.417000       1.00800           0
     19759 TIP3     803      TIP3     H2       HT       0.417000       1.00800           0
     19760 TIP3     804      TIP3     OH2      OT      -0.834000       15.9994           0
     19761 TIP3     804      TIP3     H1       HT       0.417000       1.00800           0
     19762 TIP3     804      TIP3     H2       HT       0.417000       1.00800           0
     19763 TIP3     805      TIP3     OH2      OT      -0.834000       15.9994           0
     19764 TIP3     805      TIP3     H1       HT       0.417000       1.00800           0
     19765 TIP3     805      TIP3     H2       HT       0.417000       1.00800           0
     19766 TIP3     806      TIP3     OH2      OT      -0.834000       15.9994           0
     19767 TIP3     806      TIP3     H1       HT       0.417000       1.00800           0
     19768 TIP3     806      TIP3     H2       HT       0.417000       1.00800           0
     19769 TIP3     807      TIP3     OH2      OT      -0.834000       15.9994           0
     19770 TIP3     807      TIP3     H1       HT       0.417000       1.00800           0
     19771 TIP3     807      TIP3     H2       HT       0.417000       1.00800           0
     19772 TIP3     808      TIP3     OH2      OT      -0.834000       15.9994           0
     19773 TIP3     808      TIP3     H1       HT       0.417000       1.00800           0
     19774 TIP3     808      TIP3     H2       HT       0.417000       1.00800           0
     19775 TIP3     809      TIP3     OH2      OT      -0.834000       15.9994           0
     19776 TIP3     809      TIP3     H1       HT       0.417000       1.00800           0
     19777 TIP3     809      TIP3     H2       HT       0.417000       1.00800           0
     19778 TIP3     810      TIP3     OH2      OT      -0.834000       15.9994           0
     19779 TIP3     810      TIP3     H1       HT       0.417000       1.00800           0
     19780 TIP3     810      TIP3     H2       HT       0.417000       1.00800           0
     19781 TIP3     811      TIP3     OH2      OT      -0.834000       15.9994           0
     19782 TIP3     811      TIP3     H1       HT       0.417000       1.00800           0
     19783 TIP3     811      TIP3     H2       HT       0.417000       1.00800           0
     19784 TIP3     812      TIP3     OH2      OT      -0.834000       15.9994           0
     19785 TIP3     812      TIP3     H1       HT       0.417000       1.00800           0
     19786 TIP3     812      TIP3     H2       HT       0.417000       1.00800           0
     19787 TIP3     813      TIP3     OH2      OT      -0.834000       15.9994           0
     19788 TIP3     813      TIP3     H1       HT       0.417000       1.00800           0
     19789 TIP3     813      TIP3     H2       HT       0.417000       1.00800           0
     19790 TIP3     814      TIP3     OH2      OT      -0.834000       15.9994           0
     19791 TIP3     814      TIP3     H1       HT       0.417000       1.00800           0
     19792 TIP3     814      TIP3     H2       HT       0.417000       1.00800           0
     19793 TIP3     815      TIP3     OH2      OT      -0.834000       15.9994           0
     19794 TIP3     815      TIP3     H1       HT       0.417000       1.00800           0
     19795 TIP3     815      TIP3     H2       HT       0.417000       1.00800           0
     19796 TIP3     816      TIP3     OH2      OT      -0.834000       15.9994           0
     19797 TIP3     816      TIP3     H1       HT       0.417000       1.00800           0
     19798 TIP3     816      TIP3     H2       HT       0.417000       1.00800           0
     19799 TIP3     817      TIP3     OH2      OT      -0.834000       15.9994           0
     19800 TIP3     817      TIP3     H1       HT       0.417000       1.00800           0
     19801 TIP3     817      TIP3     H2       HT       0.417000       1.00800           0
     19802 TIP3     818      TIP3     OH2      OT      -0.834000       15.9994           0
     19803 TIP3     818      TIP3     H1       HT       0.417000       1.00800           0
     19804 TIP3     818      TIP3     H2       HT       0.417000       1.00800           0
     19805 TIP3     819      TIP3     OH2      OT      -0.834000       15.9994           0
     19806 TIP3     819      TIP3     H1       HT       0.417000       1.00800           0
     19807 TIP3     819      TIP3     H2       HT       0.417000       1.00800           0
     19808 TIP3     820      TIP3     OH2      OT      -0.834000       15.9994           0
     19809 TIP3     820      TIP3     H1       HT       0.417000       1.00800           0
     19810 TIP3     820      TIP3     H2       HT       0.417000       1.00800           0
     19811 TIP3     821      TIP3     OH2      OT      -0.834000       15.9994           0
     19812 TIP3     821      TIP3     H1       HT       0.417000       1.00800           0
     19813 TIP3     821      TIP3     H2       HT       0.417000       1.00800           0
     19814 TIP3     822      TIP3     OH2      OT      -0.834000       15.9994           0
     19815 TIP3     822      TIP3     H1       HT       0.417000       1.00800           0
     19816 TIP3     822      TIP3     H2       HT       0.417000       1.00800           0
     19817 TIP3     823      TIP3     OH2      OT      -0.834000       15.9994           0
     19818 TIP3     823      TIP3     H1       HT       0.417000       1.00800           0
     19819 TIP3     823      TIP3     H2       HT       0.417000       1.00800           0
     19820 TIP3     824      TIP3     OH2      OT      -0.834000       15.9994           0
     19821 TIP3     824      TIP3     H1       HT       0.417000       1.00800           0
     19822 TIP3     824      TIP3     H2       HT       0.417000       1.00800           0
     19823 TIP3     825      TIP3     OH2      OT      -0.834000       15.9994           0
     19824 TIP3     825      TIP3     H1       HT       0.417000       1.00800           0
     19825 TIP3     825      TIP3     H2       HT       0.417000       1.00800           0
     19826 TIP3     826      TIP3     OH2      OT      -0.834000       15.9994           0
     19827 TIP3     826      TIP3     H1       HT       0.417000       1.00800           0
     19828 TIP3     826      TIP3     H2       HT       0.417000       1.00800           0
     19829 TIP3     827      TIP3     OH2      OT      -0.834000       15.9994           0
     19830 TIP3     827      TIP3     H1       HT       0.417000       1.00800           0
     19831 TIP3     827      TIP3     H2       HT       0.417000       1.00800           0
     19832 TIP3     828      TIP3     OH2      OT      -0.834000       15.9994           0
     19833 TIP3     828      TIP3     H1       HT       0.417000       1.00800           0
     19834 TIP3     828      TIP3     H2       HT       0.417000       1.00800           0
     19835 TIP3     829      TIP3     OH2      OT      -0.834000       15.9994           0
     19836 TIP3     829      TIP3     H1       HT       0.417000       1.00800           0
     19837 TIP3     829      TIP3     H2       HT       0.417000       1.00800           0
     19838 TIP3     830      TIP3     OH2      OT      -0.834000       15.9994           0
     19839 TIP3     830      TIP3     H1       HT       0.417000       1.00800           0
     19840 TIP3     830      TIP3     H2       HT       0.417000       1.00800           0
     19841 TIP3     831      TIP3     OH2      OT      -0.834000       15.9994           0
     19842 TIP3     831      TIP3     H1       HT       0.417000       1.00800           0
     19843 TIP3     831      TIP3     H2       HT       0.417000       1.00800           0
     19844 TIP3     832      TIP3     OH2      OT      -0.834000       15.9994           0
     19845 TIP3     832      TIP3     H1       HT       0.417000       1.00800           0
     19846 TIP3     832      TIP3     H2       HT       0.417000       1.00800           0
     19847 TIP3     833      TIP3     OH2      OT      -0.834000       15.9994           0
     19848 TIP3     833      TIP3     H1       HT       0.417000       1.00800           0
     19849 TIP3     833      TIP3     H2       HT       0.417000       1.00800           0
     19850 TIP3     834      TIP3     OH2      OT      -0.834000       15.9994           0
     19851 TIP3     834      TIP3     H1       HT       0.417000       1.00800           0
     19852 TIP3     834      TIP3     H2       HT       0.417000       1.00800           0
     19853 TIP3     835      TIP3     OH2      OT      -0.834000       15.9994           0
     19854 TIP3     835      TIP3     H1       HT       0.417000       1.00800           0
     19855 TIP3     835      TIP3     H2       HT       0.417000       1.00800           0
     19856 TIP3     836      TIP3     OH2      OT      -0.834000       15.9994           0
     19857 TIP3     836      TIP3     H1       HT       0.417000       1.00800           0
     19858 TIP3     836      TIP3     H2       HT       0.417000       1.00800           0
     19859 TIP3     837      TIP3     OH2      OT      -0.834000       15.9994           0
     19860 TIP3     837      TIP3     H1       HT       0.417000       1.00800           0
     19861 TIP3     837      TIP3     H2       HT       0.417000       1.00800           0
     19862 TIP3     838      TIP3     OH2      OT      -0.834000       15.9994           0
     19863 TIP3     838      TIP3     H1       HT       0.417000       1.00800           0
     19864 TIP3     838      TIP3     H2       HT       0.417000       1.00800           0
     19865 TIP3     839      TIP3     OH2      OT      -0.834000       15.9994           0
     19866 TIP3     839      TIP3     H1       HT       0.417000       1.00800           0
     19867 TIP3     839      TIP3     H2       HT       0.417000       1.00800           0
     19868 TIP3     840      TIP3     OH2      OT      -0.834000       15.9994           0
     19869 TIP3     840      TIP3     H1       HT       0.417000       1.00800           0
     19870 TIP3     840      TIP3     H2       HT       0.417000       1.00800           0
     19871 TIP3     841      TIP3     OH2      OT      -0.834000       15.9994           0
     19872 TIP3     841      TIP3     H1       HT       0.417000       1.00800           0
     19873 TIP3     841      TIP3     H2       HT       0.417000       1.00800           0
     19874 TIP3     842      TIP3     OH2      OT      -0.834000       15.9994           0
     19875 TIP3     842      TIP3     H1       HT       0.417000       1.00800           0
     19876 TIP3     842      TIP3     H2       HT       0.417000       1.00800           0
     19877 TIP3     843      TIP3     OH2      OT      -0.834000       15.9994           0
     19878 TIP3     843      TIP3     H1       HT       0.417000       1.00800           0
     19879 TIP3     843      TIP3     H2       HT       0.417000       1.00800           0
     19880 TIP3     844      TIP3     OH2      OT      -0.834000       15.9994           0
     19881 TIP3     844      TIP3     H1       HT       0.417000       1.00800           0
     19882 TIP3     844      TIP3     H2       HT       0.417000       1.00800           0
     19883 TIP3     845      TIP3     OH2      OT      -0.834000       15.9994           0
     19884 TIP3     845      TIP3     H1       HT       0.417000       1.00800           0
     19885 TIP3     845      TIP3     H2       HT       0.417000       1.00800           0
     19886 TIP3     846      TIP3     OH2      OT      -0.834000       15.9994           0
     19887 TIP3     846      TIP3     H1       HT       0.417000       1.00800           0
     19888 TIP3     846      TIP3     H2       HT       0.417000       1.00800           0
     19889 TIP3     847      TIP3     OH2      OT      -0.834000       15.9994           0
     19890 TIP3     847      TIP3     H1       HT       0.417000       1.00800           0
     19891 TIP3     847      TIP3     H2       HT       0.417000       1.00800           0
     19892 TIP3     848      TIP3     OH2      OT      -0.834000       15.9994           0
     19893 TIP3     848      TIP3     H1       HT       0.417000       1.00800           0
     19894 TIP3     848      TIP3     H2       HT       0.417000       1.00800           0
     19895 TIP3     849      TIP3     OH2      OT      -0.834000       15.9994           0
     19896 TIP3     849      TIP3     H1       HT       0.417000       1.00800           0
     19897 TIP3     849      TIP3     H2       HT       0.417000       1.00800           0
     19898 TIP3     850      TIP3     OH2      OT      -0.834000       15.9994           0
     19899 TIP3     850      TIP3     H1       HT       0.417000       1.00800           0
     19900 TIP3     850      TIP3     H2       HT       0.417000       1.00800           0
     19901 TIP3     851      TIP3     OH2      OT      -0.834000       15.9994           0
     19902 TIP3     851      TIP3     H1       HT       0.417000       1.00800           0
     19903 TIP3     851      TIP3     H2       HT       0.417000       1.00800           0
     19904 TIP3     852      TIP3     OH2      OT      -0.834000       15.9994           0
     19905 TIP3     852      TIP3     H1       HT       0.417000       1.00800           0
     19906 TIP3     852      TIP3     H2       HT       0.417000       1.00800           0
     19907 TIP3     853      TIP3     OH2      OT      -0.834000       15.9994           0
     19908 TIP3     853      TIP3     H1       HT       0.417000       1.00800           0
     19909 TIP3     853      TIP3     H2       HT       0.417000       1.00800           0
     19910 TIP3     854      TIP3     OH2      OT      -0.834000       15.9994           0
     19911 TIP3     854      TIP3     H1       HT       0.417000       1.00800           0
     19912 TIP3     854      TIP3     H2       HT       0.417000       1.00800           0
     19913 TIP3     855      TIP3     OH2      OT      -0.834000       15.9994           0
     19914 TIP3     855      TIP3     H1       HT       0.417000       1.00800           0
     19915 TIP3     855      TIP3     H2       HT       0.417000       1.00800           0
     19916 TIP3     856      TIP3     OH2      OT      -0.834000       15.9994           0
     19917 TIP3     856      TIP3     H1       HT       0.417000       1.00800           0
     19918 TIP3     856      TIP3     H2       HT       0.417000       1.00800           0
     19919 TIP3     857      TIP3     OH2      OT      -0.834000       15.9994           0
     19920 TIP3     857      TIP3     H1       HT       0.417000       1.00800           0
     19921 TIP3     857      TIP3     H2       HT       0.417000       1.00800           0
     19922 TIP3     858      TIP3     OH2      OT      -0.834000       15.9994           0
     19923 TIP3     858      TIP3     H1       HT       0.417000       1.00800           0
     19924 TIP3     858      TIP3     H2       HT       0.417000       1.00800           0
     19925 TIP3     859      TIP3     OH2      OT      -0.834000       15.9994           0
     19926 TIP3     859      TIP3     H1       HT       0.417000       1.00800           0
     19927 TIP3     859      TIP3     H2       HT       0.417000       1.00800           0
     19928 TIP3     860      TIP3     OH2      OT      -0.834000       15.9994           0
     19929 TIP3     860      TIP3     H1       HT       0.417000       1.00800           0
     19930 TIP3     860      TIP3     H2       HT       0.417000       1.00800           0
     19931 TIP3     861      TIP3     OH2      OT      -0.834000       15.9994           0
     19932 TIP3     861      TIP3     H1       HT       0.417000       1.00800           0
     19933 TIP3     861      TIP3     H2       HT       0.417000       1.00800           0
     19934 TIP3     862      TIP3     OH2      OT      -0.834000       15.9994           0
     19935 TIP3     862      TIP3     H1       HT       0.417000       1.00800           0
     19936 TIP3     862      TIP3     H2       HT       0.417000       1.00800           0
     19937 TIP3     863      TIP3     OH2      OT      -0.834000       15.9994           0
     19938 TIP3     863      TIP3     H1       HT       0.417000       1.00800           0
     19939 TIP3     863      TIP3     H2       HT       0.417000       1.00800           0
     19940 TIP3     864      TIP3     OH2      OT      -0.834000       15.9994           0
     19941 TIP3     864      TIP3     H1       HT       0.417000       1.00800           0
     19942 TIP3     864      TIP3     H2       HT       0.417000       1.00800           0
     19943 TIP3     865      TIP3     OH2      OT      -0.834000       15.9994           0
     19944 TIP3     865      TIP3     H1       HT       0.417000       1.00800           0
     19945 TIP3     865      TIP3     H2       HT       0.417000       1.00800           0
     19946 TIP3     866      TIP3     OH2      OT      -0.834000       15.9994           0
     19947 TIP3     866      TIP3     H1       HT       0.417000       1.00800           0
     19948 TIP3     866      TIP3     H2       HT       0.417000       1.00800           0
     19949 TIP3     867      TIP3     OH2      OT      -0.834000       15.9994           0
     19950 TIP3     867      TIP3     H1       HT       0.417000       1.00800           0
     19951 TIP3     867      TIP3     H2       HT       0.417000       1.00800           0
     19952 TIP3     868      TIP3     OH2      OT      -0.834000       15.9994           0
     19953 TIP3     868      TIP3     H1       HT       0.417000       1.00800           0
     19954 TIP3     868      TIP3     H2       HT       0.417000       1.00800           0
     19955 TIP3     869      TIP3     OH2      OT      -0.834000       15.9994           0
     19956 TIP3     869      TIP3     H1       HT       0.417000       1.00800           0
     19957 TIP3     869      TIP3     H2       HT       0.417000       1.00800           0
     19958 TIP3     870      TIP3     OH2      OT      -0.834000       15.9994           0
     19959 TIP3     870      TIP3     H1       HT       0.417000       1.00800           0
     19960 TIP3     870      TIP3     H2       HT       0.417000       1.00800           0
     19961 TIP3     871      TIP3     OH2      OT      -0.834000       15.9994           0
     19962 TIP3     871      TIP3     H1       HT       0.417000       1.00800           0
     19963 TIP3     871      TIP3     H2       HT       0.417000       1.00800           0
     19964 TIP3     872      TIP3     OH2      OT      -0.834000       15.9994           0
     19965 TIP3     872      TIP3     H1       HT       0.417000       1.00800           0
     19966 TIP3     872      TIP3     H2       HT       0.417000       1.00800           0
     19967 TIP3     873      TIP3     OH2      OT      -0.834000       15.9994           0
     19968 TIP3     873      TIP3     H1       HT       0.417000       1.00800           0
     19969 TIP3     873      TIP3     H2       HT       0.417000       1.00800           0
     19970 TIP3     874      TIP3     OH2      OT      -0.834000       15.9994           0
     19971 TIP3     874      TIP3     H1       HT       0.417000       1.00800           0
     19972 TIP3     874      TIP3     H2       HT       0.417000       1.00800           0
     19973 TIP3     875      TIP3     OH2      OT      -0.834000       15.9994           0
     19974 TIP3     875      TIP3     H1       HT       0.417000       1.00800           0
     19975 TIP3     875      TIP3     H2       HT       0.417000       1.00800           0
     19976 TIP3     876      TIP3     OH2      OT      -0.834000       15.9994           0
     19977 TIP3     876      TIP3     H1       HT       0.417000       1.00800           0
     19978 TIP3     876      TIP3     H2       HT       0.417000       1.00800           0
     19979 TIP3     877      TIP3     OH2      OT      -0.834000       15.9994           0
     19980 TIP3     877      TIP3     H1       HT       0.417000       1.00800           0
     19981 TIP3     877      TIP3     H2       HT       0.417000       1.00800           0
     19982 TIP3     878      TIP3     OH2      OT      -0.834000       15.9994           0
     19983 TIP3     878      TIP3     H1       HT       0.417000       1.00800           0
     19984 TIP3     878      TIP3     H2       HT       0.417000       1.00800           0
     19985 TIP3     879      TIP3     OH2      OT      -0.834000       15.9994           0
     19986 TIP3     879      TIP3     H1       HT       0.417000       1.00800           0
     19987 TIP3     879      TIP3     H2       HT       0.417000       1.00800           0
     19988 TIP3     880      TIP3     OH2      OT      -0.834000       15.9994           0
     19989 TIP3     880      TIP3     H1       HT       0.417000       1.00800           0
     19990 TIP3     880      TIP3     H2       HT       0.417000       1.00800           0
     19991 TIP3     881      TIP3     OH2      OT      -0.834000       15.9994           0
     19992 TIP3     881      TIP3     H1       HT       0.417000       1.00800           0
     19993 TIP3     881      TIP3     H2       HT       0.417000       1.00800           0
     19994 TIP3     882      TIP3     OH2      OT      -0.834000       15.9994           0
     19995 TIP3     882      TIP3     H1       HT       0.417000       1.00800           0
     19996 TIP3     882      TIP3     H2       HT       0.417000       1.00800           0
     19997 TIP3     883      TIP3     OH2      OT      -0.834000       15.9994           0
     19998 TIP3     883      TIP3     H1       HT       0.417000       1.00800           0
     19999 TIP3     883      TIP3     H2       HT       0.417000       1.00800           0
     20000 TIP3     884      TIP3     OH2      OT      -0.834000       15.9994           0
     20001 TIP3     884      TIP3     H1       HT       0.417000       1.00800           0
     20002 TIP3     884      TIP3     H2       HT       0.417000       1.00800           0
     20003 TIP3     885      TIP3     OH2      OT      -0.834000       15.9994           0
     20004 TIP3     885      TIP3     H1       HT       0.417000       1.00800           0
     20005 TIP3     885      TIP3     H2       HT       0.417000       1.00800           0
     20006 TIP3     886      TIP3     OH2      OT      -0.834000       15.9994           0
     20007 TIP3     886      TIP3     H1       HT       0.417000       1.00800           0
     20008 TIP3     886      TIP3     H2       HT       0.417000       1.00800           0
     20009 TIP3     887      TIP3     OH2      OT      -0.834000       15.9994           0
     20010 TIP3     887      TIP3     H1       HT       0.417000       1.00800           0
     20011 TIP3     887      TIP3     H2       HT       0.417000       1.00800           0
     20012 TIP3     888      TIP3     OH2      OT      -0.834000       15.9994           0
     20013 TIP3     888      TIP3     H1       HT       0.417000       1.00800           0
     20014 TIP3     888      TIP3     H2       HT       0.417000       1.00800           0
     20015 TIP3     889      TIP3     OH2      OT      -0.834000       15.9994           0
     20016 TIP3     889      TIP3     H1       HT       0.417000       1.00800           0
     20017 TIP3     889      TIP3     H2       HT       0.417000       1.00800           0
     20018 TIP3     890      TIP3     OH2      OT      -0.834000       15.9994           0
     20019 TIP3     890      TIP3     H1       HT       0.417000       1.00800           0
     20020 TIP3     890      TIP3     H2       HT       0.417000       1.00800           0
     20021 TIP3     891      TIP3     OH2      OT      -0.834000       15.9994           0
     20022 TIP3     891      TIP3     H1       HT       0.417000       1.00800           0
     20023 TIP3     891      TIP3     H2       HT       0.417000       1.00800           0
     20024 TIP3     892      TIP3     OH2      OT      -0.834000       15.9994           0
     20025 TIP3     892      TIP3     H1       HT       0.417000       1.00800           0
     20026 TIP3     892      TIP3     H2       HT       0.417000       1.00800           0
     20027 TIP3     893      TIP3     OH2      OT      -0.834000       15.9994           0
     20028 TIP3     893      TIP3     H1       HT       0.417000       1.00800           0
     20029 TIP3     893      TIP3     H2       HT       0.417000       1.00800           0
     20030 TIP3     894      TIP3     OH2      OT      -0.834000       15.9994           0
     20031 TIP3     894      TIP3     H1       HT       0.417000       1.00800           0
     20032 TIP3     894      TIP3     H2       HT       0.417000       1.00800           0
     20033 TIP3     895      TIP3     OH2      OT      -0.834000       15.9994           0
     20034 TIP3     895      TIP3     H1       HT       0.417000       1.00800           0
     20035 TIP3     895      TIP3     H2       HT       0.417000       1.00800           0
     20036 TIP3     896      TIP3     OH2      OT      -0.834000       15.9994           0
     20037 TIP3     896      TIP3     H1       HT       0.417000       1.00800           0
     20038 TIP3     896      TIP3     H2       HT       0.417000       1.00800           0
     20039 TIP3     897      TIP3     OH2      OT      -0.834000       15.9994           0
     20040 TIP3     897      TIP3     H1       HT       0.417000       1.00800           0
     20041 TIP3     897      TIP3     H2       HT       0.417000       1.00800           0
     20042 TIP3     898      TIP3     OH2      OT      -0.834000       15.9994           0
     20043 TIP3     898      TIP3     H1       HT       0.417000       1.00800           0
     20044 TIP3     898      TIP3     H2       HT       0.417000       1.00800           0
     20045 TIP3     899      TIP3     OH2      OT      -0.834000       15.9994           0
     20046 TIP3     899      TIP3     H1       HT       0.417000       1.00800           0
     20047 TIP3     899      TIP3     H2       HT       0.417000       1.00800           0
     20048 TIP3     900      TIP3     OH2      OT      -0.834000       15.9994           0
     20049 TIP3     900      TIP3     H1       HT       0.417000       1.00800           0
     20050 TIP3     900      TIP3     H2       HT       0.417000       1.00800           0
     20051 TIP3     901      TIP3     OH2      OT      -0.834000       15.9994           0
     20052 TIP3     901      TIP3     H1       HT       0.417000       1.00800           0
     20053 TIP3     901      TIP3     H2       HT       0.417000       1.00800           0
     20054 TIP3     902      TIP3     OH2      OT      -0.834000       15.9994           0
     20055 TIP3     902      TIP3     H1       HT       0.417000       1.00800           0
     20056 TIP3     902      TIP3     H2       HT       0.417000       1.00800           0
     20057 TIP3     903      TIP3     OH2      OT      -0.834000       15.9994           0
     20058 TIP3     903      TIP3     H1       HT       0.417000       1.00800           0
     20059 TIP3     903      TIP3     H2       HT       0.417000       1.00800           0
     20060 TIP3     904      TIP3     OH2      OT      -0.834000       15.9994           0
     20061 TIP3     904      TIP3     H1       HT       0.417000       1.00800           0
     20062 TIP3     904      TIP3     H2       HT       0.417000       1.00800           0
     20063 TIP3     905      TIP3     OH2      OT      -0.834000       15.9994           0
     20064 TIP3     905      TIP3     H1       HT       0.417000       1.00800           0
     20065 TIP3     905      TIP3     H2       HT       0.417000       1.00800           0
     20066 TIP3     906      TIP3     OH2      OT      -0.834000       15.9994           0
     20067 TIP3     906      TIP3     H1       HT       0.417000       1.00800           0
     20068 TIP3     906      TIP3     H2       HT       0.417000       1.00800           0
     20069 TIP3     907      TIP3     OH2      OT      -0.834000       15.9994           0
     20070 TIP3     907      TIP3     H1       HT       0.417000       1.00800           0
     20071 TIP3     907      TIP3     H2       HT       0.417000       1.00800           0
     20072 TIP3     908      TIP3     OH2      OT      -0.834000       15.9994           0
     20073 TIP3     908      TIP3     H1       HT       0.417000       1.00800           0
     20074 TIP3     908      TIP3     H2       HT       0.417000       1.00800           0
     20075 TIP3     909      TIP3     OH2      OT      -0.834000       15.9994           0
     20076 TIP3     909      TIP3     H1       HT       0.417000       1.00800           0
     20077 TIP3     909      TIP3     H2       HT       0.417000       1.00800           0
     20078 TIP3     910      TIP3     OH2      OT      -0.834000       15.9994           0
     20079 TIP3     910      TIP3     H1       HT       0.417000       1.00800           0
     20080 TIP3     910      TIP3     H2       HT       0.417000       1.00800           0
     20081 TIP3     911      TIP3     OH2      OT      -0.834000       15.9994           0
     20082 TIP3     911      TIP3     H1       HT       0.417000       1.00800           0
     20083 TIP3     911      TIP3     H2       HT       0.417000       1.00800           0
     20084 TIP3     912      TIP3     OH2      OT      -0.834000       15.9994           0
     20085 TIP3     912      TIP3     H1       HT       0.417000       1.00800           0
     20086 TIP3     912      TIP3     H2       HT       0.417000       1.00800           0
     20087 TIP3     913      TIP3     OH2      OT      -0.834000       15.9994           0
     20088 TIP3     913      TIP3     H1       HT       0.417000       1.00800           0
     20089 TIP3     913      TIP3     H2       HT       0.417000       1.00800           0
     20090 TIP3     914      TIP3     OH2      OT      -0.834000       15.9994           0
     20091 TIP3     914      TIP3     H1       HT       0.417000       1.00800           0
     20092 TIP3     914      TIP3     H2       HT       0.417000       1.00800           0
     20093 TIP3     915      TIP3     OH2      OT      -0.834000       15.9994           0
     20094 TIP3     915      TIP3     H1       HT       0.417000       1.00800           0
     20095 TIP3     915      TIP3     H2       HT       0.417000       1.00800           0
     20096 TIP3     916      TIP3     OH2      OT      -0.834000       15.9994           0
     20097 TIP3     916      TIP3     H1       HT       0.417000       1.00800           0
     20098 TIP3     916      TIP3     H2       HT       0.417000       1.00800           0
     20099 TIP3     917      TIP3     OH2      OT      -0.834000       15.9994           0
     20100 TIP3     917      TIP3     H1       HT       0.417000       1.00800           0
     20101 TIP3     917      TIP3     H2       HT       0.417000       1.00800           0
     20102 TIP3     918      TIP3     OH2      OT      -0.834000       15.9994           0
     20103 TIP3     918      TIP3     H1       HT       0.417000       1.00800           0
     20104 TIP3     918      TIP3     H2       HT       0.417000       1.00800           0
     20105 TIP3     919      TIP3     OH2      OT      -0.834000       15.9994           0
     20106 TIP3     919      TIP3     H1       HT       0.417000       1.00800           0
     20107 TIP3     919      TIP3     H2       HT       0.417000       1.00800           0
     20108 TIP3     920      TIP3     OH2      OT      -0.834000       15.9994           0
     20109 TIP3     920      TIP3     H1       HT       0.417000       1.00800           0
     20110 TIP3     920      TIP3     H2       HT       0.417000       1.00800           0
     20111 TIP3     921      TIP3     OH2      OT      -0.834000       15.9994           0
     20112 TIP3     921      TIP3     H1       HT       0.417000       1.00800           0
     20113 TIP3     921      TIP3     H2       HT       0.417000       1.00800           0
     20114 TIP3     922      TIP3     OH2      OT      -0.834000       15.9994           0
     20115 TIP3     922      TIP3     H1       HT       0.417000       1.00800           0
     20116 TIP3     922      TIP3     H2       HT       0.417000       1.00800           0
     20117 TIP3     923      TIP3     OH2      OT      -0.834000       15.9994           0
     20118 TIP3     923      TIP3     H1       HT       0.417000       1.00800           0
     20119 TIP3     923      TIP3     H2       HT       0.417000       1.00800           0
     20120 TIP3     924      TIP3     OH2      OT      -0.834000       15.9994           0
     20121 TIP3     924      TIP3     H1       HT       0.417000       1.00800           0
     20122 TIP3     924      TIP3     H2       HT       0.417000       1.00800           0
     20123 TIP3     925      TIP3     OH2      OT      -0.834000       15.9994           0
     20124 TIP3     925      TIP3     H1       HT       0.417000       1.00800           0
     20125 TIP3     925      TIP3     H2       HT       0.417000       1.00800           0
     20126 TIP3     926      TIP3     OH2      OT      -0.834000       15.9994           0
     20127 TIP3     926      TIP3     H1       HT       0.417000       1.00800           0
     20128 TIP3     926      TIP3     H2       HT       0.417000       1.00800           0
     20129 TIP3     927      TIP3     OH2      OT      -0.834000       15.9994           0
     20130 TIP3     927      TIP3     H1       HT       0.417000       1.00800           0
     20131 TIP3     927      TIP3     H2       HT       0.417000       1.00800           0
     20132 TIP3     928      TIP3     OH2      OT      -0.834000       15.9994           0
     20133 TIP3     928      TIP3     H1       HT       0.417000       1.00800           0
     20134 TIP3     928      TIP3     H2       HT       0.417000       1.00800           0
     20135 TIP3     929      TIP3     OH2      OT      -0.834000       15.9994           0
     20136 TIP3     929      TIP3     H1       HT       0.417000       1.00800           0
     20137 TIP3     929      TIP3     H2       HT       0.417000       1.00800           0
     20138 TIP3     930      TIP3     OH2      OT      -0.834000       15.9994           0
     20139 TIP3     930      TIP3     H1       HT       0.417000       1.00800           0
     20140 TIP3     930      TIP3     H2       HT       0.417000       1.00800           0
     20141 TIP3     931      TIP3     OH2      OT      -0.834000       15.9994           0
     20142 TIP3     931      TIP3     H1       HT       0.417000       1.00800           0
     20143 TIP3     931      TIP3     H2       HT       0.417000       1.00800           0
     20144 TIP3     932      TIP3     OH2      OT      -0.834000       15.9994           0
     20145 TIP3     932      TIP3     H1       HT       0.417000       1.00800           0
     20146 TIP3     932      TIP3     H2       HT       0.417000       1.00800           0
     20147 TIP3     933      TIP3     OH2      OT      -0.834000       15.9994           0
     20148 TIP3     933      TIP3     H1       HT       0.417000       1.00800           0
     20149 TIP3     933      TIP3     H2       HT       0.417000       1.00800           0
     20150 TIP3     934      TIP3     OH2      OT      -0.834000       15.9994           0
     20151 TIP3     934      TIP3     H1       HT       0.417000       1.00800           0
     20152 TIP3     934      TIP3     H2       HT       0.417000       1.00800           0
     20153 TIP3     935      TIP3     OH2      OT      -0.834000       15.9994           0
     20154 TIP3     935      TIP3     H1       HT       0.417000       1.00800           0
     20155 TIP3     935      TIP3     H2       HT       0.417000       1.00800           0
     20156 TIP3     936      TIP3     OH2      OT      -0.834000       15.9994           0
     20157 TIP3     936      TIP3     H1       HT       0.417000       1.00800           0
     20158 TIP3     936      TIP3     H2       HT       0.417000       1.00800           0
     20159 TIP3     937      TIP3     OH2      OT      -0.834000       15.9994           0
     20160 TIP3     937      TIP3     H1       HT       0.417000       1.00800           0
     20161 TIP3     937      TIP3     H2       HT       0.417000       1.00800           0
     20162 TIP3     938      TIP3     OH2      OT      -0.834000       15.9994           0
     20163 TIP3     938      TIP3     H1       HT       0.417000       1.00800           0
     20164 TIP3     938      TIP3     H2       HT       0.417000       1.00800           0
     20165 TIP3     939      TIP3     OH2      OT      -0.834000       15.9994           0
     20166 TIP3     939      TIP3     H1       HT       0.417000       1.00800           0
     20167 TIP3     939      TIP3     H2       HT       0.417000       1.00800           0
     20168 TIP3     940      TIP3     OH2      OT      -0.834000       15.9994           0
     20169 TIP3     940      TIP3     H1       HT       0.417000       1.00800           0
     20170 TIP3     940      TIP3     H2       HT       0.417000       1.00800           0
     20171 TIP3     941      TIP3     OH2      OT      -0.834000       15.9994           0
     20172 TIP3     941      TIP3     H1       HT       0.417000       1.00800           0
     20173 TIP3     941      TIP3     H2       HT       0.417000       1.00800           0
     20174 TIP3     942      TIP3     OH2      OT      -0.834000       15.9994           0
     20175 TIP3     942      TIP3     H1       HT       0.417000       1.00800           0
     20176 TIP3     942      TIP3     H2       HT       0.417000       1.00800           0
     20177 TIP3     943      TIP3     OH2      OT      -0.834000       15.9994           0
     20178 TIP3     943      TIP3     H1       HT       0.417000       1.00800           0
     20179 TIP3     943      TIP3     H2       HT       0.417000       1.00800           0
     20180 TIP3     944      TIP3     OH2      OT      -0.834000       15.9994           0
     20181 TIP3     944      TIP3     H1       HT       0.417000       1.00800           0
     20182 TIP3     944      TIP3     H2       HT       0.417000       1.00800           0
     20183 TIP3     945      TIP3     OH2      OT      -0.834000       15.9994           0
     20184 TIP3     945      TIP3     H1       HT       0.417000       1.00800           0
     20185 TIP3     945      TIP3     H2       HT       0.417000       1.00800           0
     20186 TIP3     946      TIP3     OH2      OT      -0.834000       15.9994           0
     20187 TIP3     946      TIP3     H1       HT       0.417000       1.00800           0
     20188 TIP3     946      TIP3     H2       HT       0.417000       1.00800           0
     20189 TIP3     947      TIP3     OH2      OT      -0.834000       15.9994           0
     20190 TIP3     947      TIP3     H1       HT       0.417000       1.00800           0
     20191 TIP3     947      TIP3     H2       HT       0.417000       1.00800           0
     20192 TIP3     948      TIP3     OH2      OT      -0.834000       15.9994           0
     20193 TIP3     948      TIP3     H1       HT       0.417000       1.00800           0
     20194 TIP3     948      TIP3     H2       HT       0.417000       1.00800           0
     20195 TIP3     949      TIP3     OH2      OT      -0.834000       15.9994           0
     20196 TIP3     949      TIP3     H1       HT       0.417000       1.00800           0
     20197 TIP3     949      TIP3     H2       HT       0.417000       1.00800           0
     20198 TIP3     950      TIP3     OH2      OT      -0.834000       15.9994           0
     20199 TIP3     950      TIP3     H1       HT       0.417000       1.00800           0
     20200 TIP3     950      TIP3     H2       HT       0.417000       1.00800           0
     20201 TIP3     951      TIP3     OH2      OT      -0.834000       15.9994           0
     20202 TIP3     951      TIP3     H1       HT       0.417000       1.00800           0
     20203 TIP3     951      TIP3     H2       HT       0.417000       1.00800           0
     20204 TIP3     952      TIP3     OH2      OT      -0.834000       15.9994           0
     20205 TIP3     952      TIP3     H1       HT       0.417000       1.00800           0
     20206 TIP3     952      TIP3     H2       HT       0.417000       1.00800           0
     20207 TIP3     953      TIP3     OH2      OT      -0.834000       15.9994           0
     20208 TIP3     953      TIP3     H1       HT       0.417000       1.00800           0
     20209 TIP3     953      TIP3     H2       HT       0.417000       1.00800           0
     20210 TIP3     954      TIP3     OH2      OT      -0.834000       15.9994           0
     20211 TIP3     954      TIP3     H1       HT       0.417000       1.00800           0
     20212 TIP3     954      TIP3     H2       HT       0.417000       1.00800           0
     20213 TIP3     955      TIP3     OH2      OT      -0.834000       15.9994           0
     20214 TIP3     955      TIP3     H1       HT       0.417000       1.00800           0
     20215 TIP3     955      TIP3     H2       HT       0.417000       1.00800           0
     20216 TIP3     956      TIP3     OH2      OT      -0.834000       15.9994           0
     20217 TIP3     956      TIP3     H1       HT       0.417000       1.00800           0
     20218 TIP3     956      TIP3     H2       HT       0.417000       1.00800           0
     20219 TIP3     957      TIP3     OH2      OT      -0.834000       15.9994           0
     20220 TIP3     957      TIP3     H1       HT       0.417000       1.00800           0
     20221 TIP3     957      TIP3     H2       HT       0.417000       1.00800           0
     20222 TIP3     958      TIP3     OH2      OT      -0.834000       15.9994           0
     20223 TIP3     958      TIP3     H1       HT       0.417000       1.00800           0
     20224 TIP3     958      TIP3     H2       HT       0.417000       1.00800           0
     20225 TIP3     959      TIP3     OH2      OT      -0.834000       15.9994           0
     20226 TIP3     959      TIP3     H1       HT       0.417000       1.00800           0
     20227 TIP3     959      TIP3     H2       HT       0.417000       1.00800           0
     20228 TIP3     960      TIP3     OH2      OT      -0.834000       15.9994           0
     20229 TIP3     960      TIP3     H1       HT       0.417000       1.00800           0
     20230 TIP3     960      TIP3     H2       HT       0.417000       1.00800           0
     20231 TIP3     961      TIP3     OH2      OT      -0.834000       15.9994           0
     20232 TIP3     961      TIP3     H1       HT       0.417000       1.00800           0
     20233 TIP3     961      TIP3     H2       HT       0.417000       1.00800           0
     20234 TIP3     962      TIP3     OH2      OT      -0.834000       15.9994           0
     20235 TIP3     962      TIP3     H1       HT       0.417000       1.00800           0
     20236 TIP3     962      TIP3     H2       HT       0.417000       1.00800           0
     20237 TIP3     963      TIP3     OH2      OT      -0.834000       15.9994           0
     20238 TIP3     963      TIP3     H1       HT       0.417000       1.00800           0
     20239 TIP3     963      TIP3     H2       HT       0.417000       1.00800           0
     20240 TIP3     964      TIP3     OH2      OT      -0.834000       15.9994           0
     20241 TIP3     964      TIP3     H1       HT       0.417000       1.00800           0
     20242 TIP3     964      TIP3     H2       HT       0.417000       1.00800           0
     20243 TIP3     965      TIP3     OH2      OT      -0.834000       15.9994           0
     20244 TIP3     965      TIP3     H1       HT       0.417000       1.00800           0
     20245 TIP3     965      TIP3     H2       HT       0.417000       1.00800           0
     20246 TIP3     966      TIP3     OH2      OT      -0.834000       15.9994           0
     20247 TIP3     966      TIP3     H1       HT       0.417000       1.00800           0
     20248 TIP3     966      TIP3     H2       HT       0.417000       1.00800           0
     20249 TIP3     967      TIP3     OH2      OT      -0.834000       15.9994           0
     20250 TIP3     967      TIP3     H1       HT       0.417000       1.00800           0
     20251 TIP3     967      TIP3     H2       HT       0.417000       1.00800           0
     20252 TIP3     968      TIP3     OH2      OT      -0.834000       15.9994           0
     20253 TIP3     968      TIP3     H1       HT       0.417000       1.00800           0
     20254 TIP3     968      TIP3     H2       HT       0.417000       1.00800           0
     20255 TIP3     969      TIP3     OH2      OT      -0.834000       15.9994           0
     20256 TIP3     969      TIP3     H1       HT       0.417000       1.00800           0
     20257 TIP3     969      TIP3     H2       HT       0.417000       1.00800           0
     20258 TIP3     970      TIP3     OH2      OT      -0.834000       15.9994           0
     20259 TIP3     970      TIP3     H1       HT       0.417000       1.00800           0
     20260 TIP3     970      TIP3     H2       HT       0.417000       1.00800           0
     20261 TIP3     971      TIP3     OH2      OT      -0.834000       15.9994           0
     20262 TIP3     971      TIP3     H1       HT       0.417000       1.00800           0
     20263 TIP3     971      TIP3     H2       HT       0.417000       1.00800           0
     20264 TIP3     972      TIP3     OH2      OT      -0.834000       15.9994           0
     20265 TIP3     972      TIP3     H1       HT       0.417000       1.00800           0
     20266 TIP3     972      TIP3     H2       HT       0.417000       1.00800           0
     20267 TIP3     973      TIP3     OH2      OT      -0.834000       15.9994           0
     20268 TIP3     973      TIP3     H1       HT       0.417000       1.00800           0
     20269 TIP3     973      TIP3     H2       HT       0.417000       1.00800           0
     20270 TIP3     974      TIP3     OH2      OT      -0.834000       15.9994           0
     20271 TIP3     974      TIP3     H1       HT       0.417000       1.00800           0
     20272 TIP3     974      TIP3     H2       HT       0.417000       1.00800           0
     20273 TIP3     975      TIP3     OH2      OT      -0.834000       15.9994           0
     20274 TIP3     975      TIP3     H1       HT       0.417000       1.00800           0
     20275 TIP3     975      TIP3     H2       HT       0.417000       1.00800           0
     20276 TIP3     976      TIP3     OH2      OT      -0.834000       15.9994           0
     20277 TIP3     976      TIP3     H1       HT       0.417000       1.00800           0
     20278 TIP3     976      TIP3     H2       HT       0.417000       1.00800           0
     20279 TIP3     977      TIP3     OH2      OT      -0.834000       15.9994           0
     20280 TIP3     977      TIP3     H1       HT       0.417000       1.00800           0
     20281 TIP3     977      TIP3     H2       HT       0.417000       1.00800           0
     20282 TIP3     978      TIP3     OH2      OT      -0.834000       15.9994           0
     20283 TIP3     978      TIP3     H1       HT       0.417000       1.00800           0
     20284 TIP3     978      TIP3     H2       HT       0.417000       1.00800           0
     20285 TIP3     979      TIP3     OH2      OT      -0.834000       15.9994           0
     20286 TIP3     979      TIP3     H1       HT       0.417000       1.00800           0
     20287 TIP3     979      TIP3     H2       HT       0.417000       1.00800           0
     20288 TIP3     980      TIP3     OH2      OT      -0.834000       15.9994           0
     20289 TIP3     980      TIP3     H1       HT       0.417000       1.00800           0
     20290 TIP3     980      TIP3     H2       HT       0.417000       1.00800           0
     20291 TIP3     981      TIP3     OH2      OT      -0.834000       15.9994           0
     20292 TIP3     981      TIP3     H1       HT       0.417000       1.00800           0
     20293 TIP3     981      TIP3     H2       HT       0.417000       1.00800           0
     20294 TIP3     982      TIP3     OH2      OT      -0.834000       15.9994           0
     20295 TIP3     982      TIP3     H1       HT       0.417000       1.00800           0
     20296 TIP3     982      TIP3     H2       HT       0.417000       1.00800           0
     20297 TIP3     983      TIP3     OH2      OT      -0.834000       15.9994           0
     20298 TIP3     983      TIP3     H1       HT       0.417000       1.00800           0
     20299 TIP3     983      TIP3     H2       HT       0.417000       1.00800           0
     20300 TIP3     984      TIP3     OH2      OT      -0.834000       15.9994           0
     20301 TIP3     984      TIP3     H1       HT       0.417000       1.00800           0
     20302 TIP3     984      TIP3     H2       HT       0.417000       1.00800           0
     20303 TIP3     985      TIP3     OH2      OT      -0.834000       15.9994           0
     20304 TIP3     985      TIP3     H1       HT       0.417000       1.00800           0
     20305 TIP3     985      TIP3     H2       HT       0.417000       1.00800           0
     20306 TIP3     986      TIP3     OH2      OT      -0.834000       15.9994           0
     20307 TIP3     986      TIP3     H1       HT       0.417000       1.00800           0
     20308 TIP3     986      TIP3     H2       HT       0.417000       1.00800           0
     20309 TIP3     987      TIP3     OH2      OT      -0.834000       15.9994           0
     20310 TIP3     987      TIP3     H1       HT       0.417000       1.00800           0
     20311 TIP3     987      TIP3     H2       HT       0.417000       1.00800           0
     20312 TIP3     988      TIP3     OH2      OT      -0.834000       15.9994           0
     20313 TIP3     988      TIP3     H1       HT       0.417000       1.00800           0
     20314 TIP3     988      TIP3     H2       HT       0.417000       1.00800           0
     20315 TIP3     989      TIP3     OH2      OT      -0.834000       15.9994           0
     20316 TIP3     989      TIP3     H1       HT       0.417000       1.00800           0
     20317 TIP3     989      TIP3     H2       HT       0.417000       1.00800           0
     20318 TIP3     990      TIP3     OH2      OT      -0.834000       15.9994           0
     20319 TIP3     990      TIP3     H1       HT       0.417000       1.00800           0
     20320 TIP3     990      TIP3     H2       HT       0.417000       1.00800           0
     20321 TIP3     991      TIP3     OH2      OT      -0.834000       15.9994           0
     20322 TIP3     991      TIP3     H1       HT       0.417000       1.00800           0
     20323 TIP3     991      TIP3     H2       HT       0.417000       1.00800           0
     20324 TIP3     992      TIP3     OH2      OT      -0.834000       15.9994           0
     20325 TIP3     992      TIP3     H1       HT       0.417000       1.00800           0
     20326 TIP3     992      TIP3     H2       HT       0.417000       1.00800           0
     20327 TIP3     993      TIP3     OH2      OT      -0.834000       15.9994           0
     20328 TIP3     993      TIP3     H1       HT       0.417000       1.00800           0
     20329 TIP3     993      TIP3     H2       HT       0.417000       1.00800           0
     20330 TIP3     994      TIP3     OH2      OT      -0.834000       15.9994           0
     20331 TIP3     994      TIP3     H1       HT       0.417000       1.00800           0
     20332 TIP3     994      TIP3     H2       HT       0.417000       1.00800           0
     20333 TIP3     995      TIP3     OH2      OT      -0.834000       15.9994           0
     20334 TIP3     995      TIP3     H1       HT       0.417000       1.00800           0
     20335 TIP3     995      TIP3     H2       HT       0.417000       1.00800           0
     20336 TIP3     996      TIP3     OH2      OT      -0.834000       15.9994           0
     20337 TIP3     996      TIP3     H1       HT       0.417000       1.00800           0
     20338 TIP3     996      TIP3     H2       HT       0.417000       1.00800           0
     20339 TIP3     997      TIP3     OH2      OT      -0.834000       15.9994           0
     20340 TIP3     997      TIP3     H1       HT       0.417000       1.00800           0
     20341 TIP3     997      TIP3     H2       HT       0.417000       1.00800           0
     20342 TIP3     998      TIP3     OH2      OT      -0.834000       15.9994           0
     20343 TIP3     998      TIP3     H1       HT       0.417000       1.00800           0
     20344 TIP3     998      TIP3     H2       HT       0.417000       1.00800           0
     20345 TIP3     999      TIP3     OH2      OT      -0.834000       15.9994           0
     20346 TIP3     999      TIP3     H1       HT       0.417000       1.00800           0
     20347 TIP3     999      TIP3     H2       HT       0.417000       1.00800           0
     20348 TIP3     1000     TIP3     OH2      OT      -0.834000       15.9994           0
     20349 TIP3     1000     TIP3     H1       HT       0.417000       1.00800           0
     20350 TIP3     1000     TIP3     H2       HT       0.417000       1.00800           0
     20351 TIP3     1001     TIP3     OH2      OT      -0.834000       15.9994           0
     20352 TIP3     1001     TIP3     H1       HT       0.417000       1.00800           0
     20353 TIP3     1001     TIP3     H2       HT       0.417000       1.00800           0
     20354 TIP3     1002     TIP3     OH2      OT      -0.834000       15.9994           0
     20355 TIP3     1002     TIP3     H1       HT       0.417000       1.00800           0
     20356 TIP3     1002     TIP3     H2       HT       0.417000       1.00800           0
     20357 TIP3     1003     TIP3     OH2      OT      -0.834000       15.9994           0
     20358 TIP3     1003     TIP3     H1       HT       0.417000       1.00800           0
     20359 TIP3     1003     TIP3     H2       HT       0.417000       1.00800           0
     20360 TIP3     1004     TIP3     OH2      OT      -0.834000       15.9994           0
     20361 TIP3     1004     TIP3     H1       HT       0.417000       1.00800           0
     20362 TIP3     1004     TIP3     H2       HT       0.417000       1.00800           0
     20363 TIP3     1005     TIP3     OH2      OT      -0.834000       15.9994           0
     20364 TIP3     1005     TIP3     H1       HT       0.417000       1.00800           0
     20365 TIP3     1005     TIP3     H2       HT       0.417000       1.00800           0
     20366 TIP3     1006     TIP3     OH2      OT      -0.834000       15.9994           0
     20367 TIP3     1006     TIP3     H1       HT       0.417000       1.00800           0
     20368 TIP3     1006     TIP3     H2       HT       0.417000       1.00800           0
     20369 TIP3     1007     TIP3     OH2      OT      -0.834000       15.9994           0
     20370 TIP3     1007     TIP3     H1       HT       0.417000       1.00800           0
     20371 TIP3     1007     TIP3     H2       HT       0.417000       1.00800           0
     20372 TIP3     1008     TIP3     OH2      OT      -0.834000       15.9994           0
     20373 TIP3     1008     TIP3     H1       HT       0.417000       1.00800           0
     20374 TIP3     1008     TIP3     H2       HT       0.417000       1.00800           0
     20375 TIP3     1009     TIP3     OH2      OT      -0.834000       15.9994           0
     20376 TIP3     1009     TIP3     H1       HT       0.417000       1.00800           0
     20377 TIP3     1009     TIP3     H2       HT       0.417000       1.00800           0
     20378 TIP3     1010     TIP3     OH2      OT      -0.834000       15.9994           0
     20379 TIP3     1010     TIP3     H1       HT       0.417000       1.00800           0
     20380 TIP3     1010     TIP3     H2       HT       0.417000       1.00800           0
     20381 TIP3     1011     TIP3     OH2      OT      -0.834000       15.9994           0
     20382 TIP3     1011     TIP3     H1       HT       0.417000       1.00800           0
     20383 TIP3     1011     TIP3     H2       HT       0.417000       1.00800           0
     20384 TIP3     1012     TIP3     OH2      OT      -0.834000       15.9994           0
     20385 TIP3     1012     TIP3     H1       HT       0.417000       1.00800           0
     20386 TIP3     1012     TIP3     H2       HT       0.417000       1.00800           0
     20387 TIP3     1013     TIP3     OH2      OT      -0.834000       15.9994           0
     20388 TIP3     1013     TIP3     H1       HT       0.417000       1.00800           0
     20389 TIP3     1013     TIP3     H2       HT       0.417000       1.00800           0
     20390 TIP3     1014     TIP3     OH2      OT      -0.834000       15.9994           0
     20391 TIP3     1014     TIP3     H1       HT       0.417000       1.00800           0
     20392 TIP3     1014     TIP3     H2       HT       0.417000       1.00800           0
     20393 TIP3     1015     TIP3     OH2      OT      -0.834000       15.9994           0
     20394 TIP3     1015     TIP3     H1       HT       0.417000       1.00800           0
     20395 TIP3     1015     TIP3     H2       HT       0.417000       1.00800           0
     20396 TIP3     1016     TIP3     OH2      OT      -0.834000       15.9994           0
     20397 TIP3     1016     TIP3     H1       HT       0.417000       1.00800           0
     20398 TIP3     1016     TIP3     H2       HT       0.417000       1.00800           0
     20399 TIP3     1017     TIP3     OH2      OT      -0.834000       15.9994           0
     20400 TIP3     1017     TIP3     H1       HT       0.417000       1.00800           0
     20401 TIP3     1017     TIP3     H2       HT       0.417000       1.00800           0
     20402 TIP3     1018     TIP3     OH2      OT      -0.834000       15.9994           0
     20403 TIP3     1018     TIP3     H1       HT       0.417000       1.00800           0
     20404 TIP3     1018     TIP3     H2       HT       0.417000       1.00800           0
     20405 TIP3     1019     TIP3     OH2      OT      -0.834000       15.9994           0
     20406 TIP3     1019     TIP3     H1       HT       0.417000       1.00800           0
     20407 TIP3     1019     TIP3     H2       HT       0.417000       1.00800           0
     20408 TIP3     1020     TIP3     OH2      OT      -0.834000       15.9994           0
     20409 TIP3     1020     TIP3     H1       HT       0.417000       1.00800           0
     20410 TIP3     1020     TIP3     H2       HT       0.417000       1.00800           0
     20411 TIP3     1021     TIP3     OH2      OT      -0.834000       15.9994           0
     20412 TIP3     1021     TIP3     H1       HT       0.417000       1.00800           0
     20413 TIP3     1021     TIP3     H2       HT       0.417000       1.00800           0
     20414 TIP3     1022     TIP3     OH2      OT      -0.834000       15.9994           0
     20415 TIP3     1022     TIP3     H1       HT       0.417000       1.00800           0
     20416 TIP3     1022     TIP3     H2       HT       0.417000       1.00800           0
     20417 TIP3     1023     TIP3     OH2      OT      -0.834000       15.9994           0
     20418 TIP3     1023     TIP3     H1       HT       0.417000       1.00800           0
     20419 TIP3     1023     TIP3     H2       HT       0.417000       1.00800           0
     20420 TIP3     1024     TIP3     OH2      OT      -0.834000       15.9994           0
     20421 TIP3     1024     TIP3     H1       HT       0.417000       1.00800           0
     20422 TIP3     1024     TIP3     H2       HT       0.417000       1.00800           0
     20423 TIP3     1025     TIP3     OH2      OT      -0.834000       15.9994           0
     20424 TIP3     1025     TIP3     H1       HT       0.417000       1.00800           0
     20425 TIP3     1025     TIP3     H2       HT       0.417000       1.00800           0
     20426 TIP3     1026     TIP3     OH2      OT      -0.834000       15.9994           0
     20427 TIP3     1026     TIP3     H1       HT       0.417000       1.00800           0
     20428 TIP3     1026     TIP3     H2       HT       0.417000       1.00800           0
     20429 TIP3     1027     TIP3     OH2      OT      -0.834000       15.9994           0
     20430 TIP3     1027     TIP3     H1       HT       0.417000       1.00800           0
     20431 TIP3     1027     TIP3     H2       HT       0.417000       1.00800           0
     20432 TIP3     1028     TIP3     OH2      OT      -0.834000       15.9994           0
     20433 TIP3     1028     TIP3     H1       HT       0.417000       1.00800           0
     20434 TIP3     1028     TIP3     H2       HT       0.417000       1.00800           0
     20435 TIP3     1029     TIP3     OH2      OT      -0.834000       15.9994           0
     20436 TIP3     1029     TIP3     H1       HT       0.417000       1.00800           0
     20437 TIP3     1029     TIP3     H2       HT       0.417000       1.00800           0
     20438 TIP3     1030     TIP3     OH2      OT      -0.834000       15.9994           0
     20439 TIP3     1030     TIP3     H1       HT       0.417000       1.00800           0
     20440 TIP3     1030     TIP3     H2       HT       0.417000       1.00800           0
     20441 TIP3     1031     TIP3     OH2      OT      -0.834000       15.9994           0
     20442 TIP3     1031     TIP3     H1       HT       0.417000       1.00800           0
     20443 TIP3     1031     TIP3     H2       HT       0.417000       1.00800           0
     20444 TIP3     1032     TIP3     OH2      OT      -0.834000       15.9994           0
     20445 TIP3     1032     TIP3     H1       HT       0.417000       1.00800           0
     20446 TIP3     1032     TIP3     H2       HT       0.417000       1.00800           0
     20447 TIP3     1033     TIP3     OH2      OT      -0.834000       15.9994           0
     20448 TIP3     1033     TIP3     H1       HT       0.417000       1.00800           0
     20449 TIP3     1033     TIP3     H2       HT       0.417000       1.00800           0
     20450 TIP3     1034     TIP3     OH2      OT      -0.834000       15.9994           0
     20451 TIP3     1034     TIP3     H1       HT       0.417000       1.00800           0
     20452 TIP3     1034     TIP3     H2       HT       0.417000       1.00800           0
     20453 TIP3     1035     TIP3     OH2      OT      -0.834000       15.9994           0
     20454 TIP3     1035     TIP3     H1       HT       0.417000       1.00800           0
     20455 TIP3     1035     TIP3     H2       HT       0.417000       1.00800           0
     20456 TIP3     1036     TIP3     OH2      OT      -0.834000       15.9994           0
     20457 TIP3     1036     TIP3     H1       HT       0.417000       1.00800           0
     20458 TIP3     1036     TIP3     H2       HT       0.417000       1.00800           0
     20459 TIP3     1037     TIP3     OH2      OT      -0.834000       15.9994           0
     20460 TIP3     1037     TIP3     H1       HT       0.417000       1.00800           0
     20461 TIP3     1037     TIP3     H2       HT       0.417000       1.00800           0
     20462 TIP3     1038     TIP3     OH2      OT      -0.834000       15.9994           0
     20463 TIP3     1038     TIP3     H1       HT       0.417000       1.00800           0
     20464 TIP3     1038     TIP3     H2       HT       0.417000       1.00800           0
     20465 TIP3     1039     TIP3     OH2      OT      -0.834000       15.9994           0
     20466 TIP3     1039     TIP3     H1       HT       0.417000       1.00800           0
     20467 TIP3     1039     TIP3     H2       HT       0.417000       1.00800           0
     20468 TIP3     1040     TIP3     OH2      OT      -0.834000       15.9994           0
     20469 TIP3     1040     TIP3     H1       HT       0.417000       1.00800           0
     20470 TIP3     1040     TIP3     H2       HT       0.417000       1.00800           0
     20471 TIP3     1041     TIP3     OH2      OT      -0.834000       15.9994           0
     20472 TIP3     1041     TIP3     H1       HT       0.417000       1.00800           0
     20473 TIP3     1041     TIP3     H2       HT       0.417000       1.00800           0
     20474 TIP3     1042     TIP3     OH2      OT      -0.834000       15.9994           0
     20475 TIP3     1042     TIP3     H1       HT       0.417000       1.00800           0
     20476 TIP3     1042     TIP3     H2       HT       0.417000       1.00800           0
     20477 TIP3     1043     TIP3     OH2      OT      -0.834000       15.9994           0
     20478 TIP3     1043     TIP3     H1       HT       0.417000       1.00800           0
     20479 TIP3     1043     TIP3     H2       HT       0.417000       1.00800           0
     20480 TIP3     1044     TIP3     OH2      OT      -0.834000       15.9994           0
     20481 TIP3     1044     TIP3     H1       HT       0.417000       1.00800           0
     20482 TIP3     1044     TIP3     H2       HT       0.417000       1.00800           0
     20483 TIP3     1045     TIP3     OH2      OT      -0.834000       15.9994           0
     20484 TIP3     1045     TIP3     H1       HT       0.417000       1.00800           0
     20485 TIP3     1045     TIP3     H2       HT       0.417000       1.00800           0
     20486 TIP3     1046     TIP3     OH2      OT      -0.834000       15.9994           0
     20487 TIP3     1046     TIP3     H1       HT       0.417000       1.00800           0
     20488 TIP3     1046     TIP3     H2       HT       0.417000       1.00800           0
     20489 TIP3     1047     TIP3     OH2      OT      -0.834000       15.9994           0
     20490 TIP3     1047     TIP3     H1       HT       0.417000       1.00800           0
     20491 TIP3     1047     TIP3     H2       HT       0.417000       1.00800           0
     20492 TIP3     1048     TIP3     OH2      OT      -0.834000       15.9994           0
     20493 TIP3     1048     TIP3     H1       HT       0.417000       1.00800           0
     20494 TIP3     1048     TIP3     H2       HT       0.417000       1.00800           0
     20495 TIP3     1049     TIP3     OH2      OT      -0.834000       15.9994           0
     20496 TIP3     1049     TIP3     H1       HT       0.417000       1.00800           0
     20497 TIP3     1049     TIP3     H2       HT       0.417000       1.00800           0
     20498 TIP3     1050     TIP3     OH2      OT      -0.834000       15.9994           0
     20499 TIP3     1050     TIP3     H1       HT       0.417000       1.00800           0
     20500 TIP3     1050     TIP3     H2       HT       0.417000       1.00800           0
     20501 TIP3     1051     TIP3     OH2      OT      -0.834000       15.9994           0
     20502 TIP3     1051     TIP3     H1       HT       0.417000       1.00800           0
     20503 TIP3     1051     TIP3     H2       HT       0.417000       1.00800           0
     20504 TIP3     1052     TIP3     OH2      OT      -0.834000       15.9994           0
     20505 TIP3     1052     TIP3     H1       HT       0.417000       1.00800           0
     20506 TIP3     1052     TIP3     H2       HT       0.417000       1.00800           0
     20507 TIP3     1053     TIP3     OH2      OT      -0.834000       15.9994           0
     20508 TIP3     1053     TIP3     H1       HT       0.417000       1.00800           0
     20509 TIP3     1053     TIP3     H2       HT       0.417000       1.00800           0
     20510 TIP3     1054     TIP3     OH2      OT      -0.834000       15.9994           0
     20511 TIP3     1054     TIP3     H1       HT       0.417000       1.00800           0
     20512 TIP3     1054     TIP3     H2       HT       0.417000       1.00800           0
     20513 TIP3     1055     TIP3     OH2      OT      -0.834000       15.9994           0
     20514 TIP3     1055     TIP3     H1       HT       0.417000       1.00800           0
     20515 TIP3     1055     TIP3     H2       HT       0.417000       1.00800           0
     20516 TIP3     1056     TIP3     OH2      OT      -0.834000       15.9994           0
     20517 TIP3     1056     TIP3     H1       HT       0.417000       1.00800           0
     20518 TIP3     1056     TIP3     H2       HT       0.417000       1.00800           0
     20519 TIP3     1057     TIP3     OH2      OT      -0.834000       15.9994           0
     20520 TIP3     1057     TIP3     H1       HT       0.417000       1.00800           0
     20521 TIP3     1057     TIP3     H2       HT       0.417000       1.00800           0
     20522 TIP3     1058     TIP3     OH2      OT      -0.834000       15.9994           0
     20523 TIP3     1058     TIP3     H1       HT       0.417000       1.00800           0
     20524 TIP3     1058     TIP3     H2       HT       0.417000       1.00800           0
     20525 TIP3     1059     TIP3     OH2      OT      -0.834000       15.9994           0
     20526 TIP3     1059     TIP3     H1       HT       0.417000       1.00800           0
     20527 TIP3     1059     TIP3     H2       HT       0.417000       1.00800           0
     20528 TIP3     1060     TIP3     OH2      OT      -0.834000       15.9994           0
     20529 TIP3     1060     TIP3     H1       HT       0.417000       1.00800           0
     20530 TIP3     1060     TIP3     H2       HT       0.417000       1.00800           0
     20531 TIP3     1061     TIP3     OH2      OT      -0.834000       15.9994           0
     20532 TIP3     1061     TIP3     H1       HT       0.417000       1.00800           0
     20533 TIP3     1061     TIP3     H2       HT       0.417000       1.00800           0
     20534 TIP3     1062     TIP3     OH2      OT      -0.834000       15.9994           0
     20535 TIP3     1062     TIP3     H1       HT       0.417000       1.00800           0
     20536 TIP3     1062     TIP3     H2       HT       0.417000       1.00800           0
     20537 TIP3     1063     TIP3     OH2      OT      -0.834000       15.9994           0
     20538 TIP3     1063     TIP3     H1       HT       0.417000       1.00800           0
     20539 TIP3     1063     TIP3     H2       HT       0.417000       1.00800           0
     20540 TIP3     1064     TIP3     OH2      OT      -0.834000       15.9994           0
     20541 TIP3     1064     TIP3     H1       HT       0.417000       1.00800           0
     20542 TIP3     1064     TIP3     H2       HT       0.417000       1.00800           0
     20543 TIP3     1065     TIP3     OH2      OT      -0.834000       15.9994           0
     20544 TIP3     1065     TIP3     H1       HT       0.417000       1.00800           0
     20545 TIP3     1065     TIP3     H2       HT       0.417000       1.00800           0
     20546 TIP3     1066     TIP3     OH2      OT      -0.834000       15.9994           0
     20547 TIP3     1066     TIP3     H1       HT       0.417000       1.00800           0
     20548 TIP3     1066     TIP3     H2       HT       0.417000       1.00800           0
     20549 TIP3     1067     TIP3     OH2      OT      -0.834000       15.9994           0
     20550 TIP3     1067     TIP3     H1       HT       0.417000       1.00800           0
     20551 TIP3     1067     TIP3     H2       HT       0.417000       1.00800           0
     20552 TIP3     1068     TIP3     OH2      OT      -0.834000       15.9994           0
     20553 TIP3     1068     TIP3     H1       HT       0.417000       1.00800           0
     20554 TIP3     1068     TIP3     H2       HT       0.417000       1.00800           0
     20555 TIP3     1069     TIP3     OH2      OT      -0.834000       15.9994           0
     20556 TIP3     1069     TIP3     H1       HT       0.417000       1.00800           0
     20557 TIP3     1069     TIP3     H2       HT       0.417000       1.00800           0
     20558 TIP3     1070     TIP3     OH2      OT      -0.834000       15.9994           0
     20559 TIP3     1070     TIP3     H1       HT       0.417000       1.00800           0
     20560 TIP3     1070     TIP3     H2       HT       0.417000       1.00800           0
     20561 TIP3     1071     TIP3     OH2      OT      -0.834000       15.9994           0
     20562 TIP3     1071     TIP3     H1       HT       0.417000       1.00800           0
     20563 TIP3     1071     TIP3     H2       HT       0.417000       1.00800           0
     20564 TIP3     1072     TIP3     OH2      OT      -0.834000       15.9994           0
     20565 TIP3     1072     TIP3     H1       HT       0.417000       1.00800           0
     20566 TIP3     1072     TIP3     H2       HT       0.417000       1.00800           0
     20567 TIP3     1073     TIP3     OH2      OT      -0.834000       15.9994           0
     20568 TIP3     1073     TIP3     H1       HT       0.417000       1.00800           0
     20569 TIP3     1073     TIP3     H2       HT       0.417000       1.00800           0
     20570 TIP3     1074     TIP3     OH2      OT      -0.834000       15.9994           0
     20571 TIP3     1074     TIP3     H1       HT       0.417000       1.00800           0
     20572 TIP3     1074     TIP3     H2       HT       0.417000       1.00800           0
     20573 TIP3     1075     TIP3     OH2      OT      -0.834000       15.9994           0
     20574 TIP3     1075     TIP3     H1       HT       0.417000       1.00800           0
     20575 TIP3     1075     TIP3     H2       HT       0.417000       1.00800           0
     20576 TIP3     1076     TIP3     OH2      OT      -0.834000       15.9994           0
     20577 TIP3     1076     TIP3     H1       HT       0.417000       1.00800           0
     20578 TIP3     1076     TIP3     H2       HT       0.417000       1.00800           0
     20579 TIP3     1077     TIP3     OH2      OT      -0.834000       15.9994           0
     20580 TIP3     1077     TIP3     H1       HT       0.417000       1.00800           0
     20581 TIP3     1077     TIP3     H2       HT       0.417000       1.00800           0
     20582 TIP3     1078     TIP3     OH2      OT      -0.834000       15.9994           0
     20583 TIP3     1078     TIP3     H1       HT       0.417000       1.00800           0
     20584 TIP3     1078     TIP3     H2       HT       0.417000       1.00800           0
     20585 TIP3     1079     TIP3     OH2      OT      -0.834000       15.9994           0
     20586 TIP3     1079     TIP3     H1       HT       0.417000       1.00800           0
     20587 TIP3     1079     TIP3     H2       HT       0.417000       1.00800           0
     20588 TIP3     1080     TIP3     OH2      OT      -0.834000       15.9994           0
     20589 TIP3     1080     TIP3     H1       HT       0.417000       1.00800           0
     20590 TIP3     1080     TIP3     H2       HT       0.417000       1.00800           0
     20591 TIP3     1081     TIP3     OH2      OT      -0.834000       15.9994           0
     20592 TIP3     1081     TIP3     H1       HT       0.417000       1.00800           0
     20593 TIP3     1081     TIP3     H2       HT       0.417000       1.00800           0
     20594 TIP3     1082     TIP3     OH2      OT      -0.834000       15.9994           0
     20595 TIP3     1082     TIP3     H1       HT       0.417000       1.00800           0
     20596 TIP3     1082     TIP3     H2       HT       0.417000       1.00800           0
     20597 TIP3     1083     TIP3     OH2      OT      -0.834000       15.9994           0
     20598 TIP3     1083     TIP3     H1       HT       0.417000       1.00800           0
     20599 TIP3     1083     TIP3     H2       HT       0.417000       1.00800           0
     20600 TIP3     1084     TIP3     OH2      OT      -0.834000       15.9994           0
     20601 TIP3     1084     TIP3     H1       HT       0.417000       1.00800           0
     20602 TIP3     1084     TIP3     H2       HT       0.417000       1.00800           0
     20603 TIP3     1085     TIP3     OH2      OT      -0.834000       15.9994           0
     20604 TIP3     1085     TIP3     H1       HT       0.417000       1.00800           0
     20605 TIP3     1085     TIP3     H2       HT       0.417000       1.00800           0
     20606 TIP3     1086     TIP3     OH2      OT      -0.834000       15.9994           0
     20607 TIP3     1086     TIP3     H1       HT       0.417000       1.00800           0
     20608 TIP3     1086     TIP3     H2       HT       0.417000       1.00800           0
     20609 TIP3     1087     TIP3     OH2      OT      -0.834000       15.9994           0
     20610 TIP3     1087     TIP3     H1       HT       0.417000       1.00800           0
     20611 TIP3     1087     TIP3     H2       HT       0.417000       1.00800           0
     20612 TIP3     1088     TIP3     OH2      OT      -0.834000       15.9994           0
     20613 TIP3     1088     TIP3     H1       HT       0.417000       1.00800           0
     20614 TIP3     1088     TIP3     H2       HT       0.417000       1.00800           0
     20615 TIP3     1089     TIP3     OH2      OT      -0.834000       15.9994           0
     20616 TIP3     1089     TIP3     H1       HT       0.417000       1.00800           0
     20617 TIP3     1089     TIP3     H2       HT       0.417000       1.00800           0
     20618 TIP3     1090     TIP3     OH2      OT      -0.834000       15.9994           0
     20619 TIP3     1090     TIP3     H1       HT       0.417000       1.00800           0
     20620 TIP3     1090     TIP3     H2       HT       0.417000       1.00800           0
     20621 TIP3     1091     TIP3     OH2      OT      -0.834000       15.9994           0
     20622 TIP3     1091     TIP3     H1       HT       0.417000       1.00800           0
     20623 TIP3     1091     TIP3     H2       HT       0.417000       1.00800           0
     20624 TIP3     1092     TIP3     OH2      OT      -0.834000       15.9994           0
     20625 TIP3     1092     TIP3     H1       HT       0.417000       1.00800           0
     20626 TIP3     1092     TIP3     H2       HT       0.417000       1.00800           0
     20627 TIP3     1093     TIP3     OH2      OT      -0.834000       15.9994           0
     20628 TIP3     1093     TIP3     H1       HT       0.417000       1.00800           0
     20629 TIP3     1093     TIP3     H2       HT       0.417000       1.00800           0
     20630 TIP3     1094     TIP3     OH2      OT      -0.834000       15.9994           0
     20631 TIP3     1094     TIP3     H1       HT       0.417000       1.00800           0
     20632 TIP3     1094     TIP3     H2       HT       0.417000       1.00800           0
     20633 TIP3     1095     TIP3     OH2      OT      -0.834000       15.9994           0
     20634 TIP3     1095     TIP3     H1       HT       0.417000       1.00800           0
     20635 TIP3     1095     TIP3     H2       HT       0.417000       1.00800           0
     20636 TIP3     1096     TIP3     OH2      OT      -0.834000       15.9994           0
     20637 TIP3     1096     TIP3     H1       HT       0.417000       1.00800           0
     20638 TIP3     1096     TIP3     H2       HT       0.417000       1.00800           0
     20639 TIP3     1097     TIP3     OH2      OT      -0.834000       15.9994           0
     20640 TIP3     1097     TIP3     H1       HT       0.417000       1.00800           0
     20641 TIP3     1097     TIP3     H2       HT       0.417000       1.00800           0
     20642 TIP3     1098     TIP3     OH2      OT      -0.834000       15.9994           0
     20643 TIP3     1098     TIP3     H1       HT       0.417000       1.00800           0
     20644 TIP3     1098     TIP3     H2       HT       0.417000       1.00800           0
     20645 TIP3     1099     TIP3     OH2      OT      -0.834000       15.9994           0
     20646 TIP3     1099     TIP3     H1       HT       0.417000       1.00800           0
     20647 TIP3     1099     TIP3     H2       HT       0.417000       1.00800           0
     20648 TIP3     1100     TIP3     OH2      OT      -0.834000       15.9994           0
     20649 TIP3     1100     TIP3     H1       HT       0.417000       1.00800           0
     20650 TIP3     1100     TIP3     H2       HT       0.417000       1.00800           0
     20651 TIP3     1101     TIP3     OH2      OT      -0.834000       15.9994           0
     20652 TIP3     1101     TIP3     H1       HT       0.417000       1.00800           0
     20653 TIP3     1101     TIP3     H2       HT       0.417000       1.00800           0
     20654 TIP3     1102     TIP3     OH2      OT      -0.834000       15.9994           0
     20655 TIP3     1102     TIP3     H1       HT       0.417000       1.00800           0
     20656 TIP3     1102     TIP3     H2       HT       0.417000       1.00800           0
     20657 TIP3     1103     TIP3     OH2      OT      -0.834000       15.9994           0
     20658 TIP3     1103     TIP3     H1       HT       0.417000       1.00800           0
     20659 TIP3     1103     TIP3     H2       HT       0.417000       1.00800           0
     20660 TIP3     1104     TIP3     OH2      OT      -0.834000       15.9994           0
     20661 TIP3     1104     TIP3     H1       HT       0.417000       1.00800           0
     20662 TIP3     1104     TIP3     H2       HT       0.417000       1.00800           0
     20663 TIP3     1105     TIP3     OH2      OT      -0.834000       15.9994           0
     20664 TIP3     1105     TIP3     H1       HT       0.417000       1.00800           0
     20665 TIP3     1105     TIP3     H2       HT       0.417000       1.00800           0
     20666 TIP3     1106     TIP3     OH2      OT      -0.834000       15.9994           0
     20667 TIP3     1106     TIP3     H1       HT       0.417000       1.00800           0
     20668 TIP3     1106     TIP3     H2       HT       0.417000       1.00800           0
     20669 TIP3     1107     TIP3     OH2      OT      -0.834000       15.9994           0
     20670 TIP3     1107     TIP3     H1       HT       0.417000       1.00800           0
     20671 TIP3     1107     TIP3     H2       HT       0.417000       1.00800           0
     20672 TIP3     1108     TIP3     OH2      OT      -0.834000       15.9994           0
     20673 TIP3     1108     TIP3     H1       HT       0.417000       1.00800           0
     20674 TIP3     1108     TIP3     H2       HT       0.417000       1.00800           0
     20675 TIP3     1109     TIP3     OH2      OT      -0.834000       15.9994           0
     20676 TIP3     1109     TIP3     H1       HT       0.417000       1.00800           0
     20677 TIP3     1109     TIP3     H2       HT       0.417000       1.00800           0
     20678 TIP3     1110     TIP3     OH2      OT      -0.834000       15.9994           0
     20679 TIP3     1110     TIP3     H1       HT       0.417000       1.00800           0
     20680 TIP3     1110     TIP3     H2       HT       0.417000       1.00800           0
     20681 TIP3     1111     TIP3     OH2      OT      -0.834000       15.9994           0
     20682 TIP3     1111     TIP3     H1       HT       0.417000       1.00800           0
     20683 TIP3     1111     TIP3     H2       HT       0.417000       1.00800           0
     20684 TIP3     1112     TIP3     OH2      OT      -0.834000       15.9994           0
     20685 TIP3     1112     TIP3     H1       HT       0.417000       1.00800           0
     20686 TIP3     1112     TIP3     H2       HT       0.417000       1.00800           0
     20687 TIP3     1113     TIP3     OH2      OT      -0.834000       15.9994           0
     20688 TIP3     1113     TIP3     H1       HT       0.417000       1.00800           0
     20689 TIP3     1113     TIP3     H2       HT       0.417000       1.00800           0
     20690 TIP3     1114     TIP3     OH2      OT      -0.834000       15.9994           0
     20691 TIP3     1114     TIP3     H1       HT       0.417000       1.00800           0
     20692 TIP3     1114     TIP3     H2       HT       0.417000       1.00800           0
     20693 TIP3     1115     TIP3     OH2      OT      -0.834000       15.9994           0
     20694 TIP3     1115     TIP3     H1       HT       0.417000       1.00800           0
     20695 TIP3     1115     TIP3     H2       HT       0.417000       1.00800           0
     20696 TIP3     1116     TIP3     OH2      OT      -0.834000       15.9994           0
     20697 TIP3     1116     TIP3     H1       HT       0.417000       1.00800           0
     20698 TIP3     1116     TIP3     H2       HT       0.417000       1.00800           0
     20699 TIP3     1117     TIP3     OH2      OT      -0.834000       15.9994           0
     20700 TIP3     1117     TIP3     H1       HT       0.417000       1.00800           0
     20701 TIP3     1117     TIP3     H2       HT       0.417000       1.00800           0
     20702 TIP3     1118     TIP3     OH2      OT      -0.834000       15.9994           0
     20703 TIP3     1118     TIP3     H1       HT       0.417000       1.00800           0
     20704 TIP3     1118     TIP3     H2       HT       0.417000       1.00800           0
     20705 TIP3     1119     TIP3     OH2      OT      -0.834000       15.9994           0
     20706 TIP3     1119     TIP3     H1       HT       0.417000       1.00800           0
     20707 TIP3     1119     TIP3     H2       HT       0.417000       1.00800           0
     20708 TIP3     1120     TIP3     OH2      OT      -0.834000       15.9994           0
     20709 TIP3     1120     TIP3     H1       HT       0.417000       1.00800           0
     20710 TIP3     1120     TIP3     H2       HT       0.417000       1.00800           0
     20711 TIP3     1121     TIP3     OH2      OT      -0.834000       15.9994           0
     20712 TIP3     1121     TIP3     H1       HT       0.417000       1.00800           0
     20713 TIP3     1121     TIP3     H2       HT       0.417000       1.00800           0
     20714 TIP3     1122     TIP3     OH2      OT      -0.834000       15.9994           0
     20715 TIP3     1122     TIP3     H1       HT       0.417000       1.00800           0
     20716 TIP3     1122     TIP3     H2       HT       0.417000       1.00800           0
     20717 TIP3     1123     TIP3     OH2      OT      -0.834000       15.9994           0
     20718 TIP3     1123     TIP3     H1       HT       0.417000       1.00800           0
     20719 TIP3     1123     TIP3     H2       HT       0.417000       1.00800           0
     20720 TIP3     1124     TIP3     OH2      OT      -0.834000       15.9994           0
     20721 TIP3     1124     TIP3     H1       HT       0.417000       1.00800           0
     20722 TIP3     1124     TIP3     H2       HT       0.417000       1.00800           0
     20723 TIP3     1125     TIP3     OH2      OT      -0.834000       15.9994           0
     20724 TIP3     1125     TIP3     H1       HT       0.417000       1.00800           0
     20725 TIP3     1125     TIP3     H2       HT       0.417000       1.00800           0
     20726 TIP3     1126     TIP3     OH2      OT      -0.834000       15.9994           0
     20727 TIP3     1126     TIP3     H1       HT       0.417000       1.00800           0
     20728 TIP3     1126     TIP3     H2       HT       0.417000       1.00800           0
     20729 TIP3     1127     TIP3     OH2      OT      -0.834000       15.9994           0
     20730 TIP3     1127     TIP3     H1       HT       0.417000       1.00800           0
     20731 TIP3     1127     TIP3     H2       HT       0.417000       1.00800           0
     20732 TIP3     1128     TIP3     OH2      OT      -0.834000       15.9994           0
     20733 TIP3     1128     TIP3     H1       HT       0.417000       1.00800           0
     20734 TIP3     1128     TIP3     H2       HT       0.417000       1.00800           0
     20735 TIP3     1129     TIP3     OH2      OT      -0.834000       15.9994           0
     20736 TIP3     1129     TIP3     H1       HT       0.417000       1.00800           0
     20737 TIP3     1129     TIP3     H2       HT       0.417000       1.00800           0
     20738 TIP3     1130     TIP3     OH2      OT      -0.834000       15.9994           0
     20739 TIP3     1130     TIP3     H1       HT       0.417000       1.00800           0
     20740 TIP3     1130     TIP3     H2       HT       0.417000       1.00800           0
     20741 TIP3     1131     TIP3     OH2      OT      -0.834000       15.9994           0
     20742 TIP3     1131     TIP3     H1       HT       0.417000       1.00800           0
     20743 TIP3     1131     TIP3     H2       HT       0.417000       1.00800           0
     20744 TIP3     1132     TIP3     OH2      OT      -0.834000       15.9994           0
     20745 TIP3     1132     TIP3     H1       HT       0.417000       1.00800           0
     20746 TIP3     1132     TIP3     H2       HT       0.417000       1.00800           0
     20747 TIP3     1133     TIP3     OH2      OT      -0.834000       15.9994           0
     20748 TIP3     1133     TIP3     H1       HT       0.417000       1.00800           0
     20749 TIP3     1133     TIP3     H2       HT       0.417000       1.00800           0
     20750 TIP3     1134     TIP3     OH2      OT      -0.834000       15.9994           0
     20751 TIP3     1134     TIP3     H1       HT       0.417000       1.00800           0
     20752 TIP3     1134     TIP3     H2       HT       0.417000       1.00800           0
     20753 TIP3     1135     TIP3     OH2      OT      -0.834000       15.9994           0
     20754 TIP3     1135     TIP3     H1       HT       0.417000       1.00800           0
     20755 TIP3     1135     TIP3     H2       HT       0.417000       1.00800           0
     20756 TIP3     1136     TIP3     OH2      OT      -0.834000       15.9994           0
     20757 TIP3     1136     TIP3     H1       HT       0.417000       1.00800           0
     20758 TIP3     1136     TIP3     H2       HT       0.417000       1.00800           0
     20759 TIP3     1137     TIP3     OH2      OT      -0.834000       15.9994           0
     20760 TIP3     1137     TIP3     H1       HT       0.417000       1.00800           0
     20761 TIP3     1137     TIP3     H2       HT       0.417000       1.00800           0
     20762 TIP3     1138     TIP3     OH2      OT      -0.834000       15.9994           0
     20763 TIP3     1138     TIP3     H1       HT       0.417000       1.00800           0
     20764 TIP3     1138     TIP3     H2       HT       0.417000       1.00800           0
     20765 TIP3     1139     TIP3     OH2      OT      -0.834000       15.9994           0
     20766 TIP3     1139     TIP3     H1       HT       0.417000       1.00800           0
     20767 TIP3     1139     TIP3     H2       HT       0.417000       1.00800           0
     20768 TIP3     1140     TIP3     OH2      OT      -0.834000       15.9994           0
     20769 TIP3     1140     TIP3     H1       HT       0.417000       1.00800           0
     20770 TIP3     1140     TIP3     H2       HT       0.417000       1.00800           0
     20771 TIP3     1141     TIP3     OH2      OT      -0.834000       15.9994           0
     20772 TIP3     1141     TIP3     H1       HT       0.417000       1.00800           0
     20773 TIP3     1141     TIP3     H2       HT       0.417000       1.00800           0
     20774 TIP3     1142     TIP3     OH2      OT      -0.834000       15.9994           0
     20775 TIP3     1142     TIP3     H1       HT       0.417000       1.00800           0
     20776 TIP3     1142     TIP3     H2       HT       0.417000       1.00800           0
     20777 TIP3     1143     TIP3     OH2      OT      -0.834000       15.9994           0
     20778 TIP3     1143     TIP3     H1       HT       0.417000       1.00800           0
     20779 TIP3     1143     TIP3     H2       HT       0.417000       1.00800           0
     20780 TIP3     1144     TIP3     OH2      OT      -0.834000       15.9994           0
     20781 TIP3     1144     TIP3     H1       HT       0.417000       1.00800           0
     20782 TIP3     1144     TIP3     H2       HT       0.417000       1.00800           0
     20783 TIP3     1145     TIP3     OH2      OT      -0.834000       15.9994           0
     20784 TIP3     1145     TIP3     H1       HT       0.417000       1.00800           0
     20785 TIP3     1145     TIP3     H2       HT       0.417000       1.00800           0
     20786 TIP3     1146     TIP3     OH2      OT      -0.834000       15.9994           0
     20787 TIP3     1146     TIP3     H1       HT       0.417000       1.00800           0
     20788 TIP3     1146     TIP3     H2       HT       0.417000       1.00800           0
     20789 TIP3     1147     TIP3     OH2      OT      -0.834000       15.9994           0
     20790 TIP3     1147     TIP3     H1       HT       0.417000       1.00800           0
     20791 TIP3     1147     TIP3     H2       HT       0.417000       1.00800           0
     20792 TIP3     1148     TIP3     OH2      OT      -0.834000       15.9994           0
     20793 TIP3     1148     TIP3     H1       HT       0.417000       1.00800           0
     20794 TIP3     1148     TIP3     H2       HT       0.417000       1.00800           0
     20795 TIP3     1149     TIP3     OH2      OT      -0.834000       15.9994           0
     20796 TIP3     1149     TIP3     H1       HT       0.417000       1.00800           0
     20797 TIP3     1149     TIP3     H2       HT       0.417000       1.00800           0
     20798 TIP3     1150     TIP3     OH2      OT      -0.834000       15.9994           0
     20799 TIP3     1150     TIP3     H1       HT       0.417000       1.00800           0
     20800 TIP3     1150     TIP3     H2       HT       0.417000       1.00800           0
     20801 TIP3     1151     TIP3     OH2      OT      -0.834000       15.9994           0
     20802 TIP3     1151     TIP3     H1       HT       0.417000       1.00800           0
     20803 TIP3     1151     TIP3     H2       HT       0.417000       1.00800           0
     20804 TIP3     1152     TIP3     OH2      OT      -0.834000       15.9994           0
     20805 TIP3     1152     TIP3     H1       HT       0.417000       1.00800           0
     20806 TIP3     1152     TIP3     H2       HT       0.417000       1.00800           0
     20807 TIP3     1153     TIP3     OH2      OT      -0.834000       15.9994           0
     20808 TIP3     1153     TIP3     H1       HT       0.417000       1.00800           0
     20809 TIP3     1153     TIP3     H2       HT       0.417000       1.00800           0
     20810 TIP3     1154     TIP3     OH2      OT      -0.834000       15.9994           0
     20811 TIP3     1154     TIP3     H1       HT       0.417000       1.00800           0
     20812 TIP3     1154     TIP3     H2       HT       0.417000       1.00800           0
     20813 TIP3     1155     TIP3     OH2      OT      -0.834000       15.9994           0
     20814 TIP3     1155     TIP3     H1       HT       0.417000       1.00800           0
     20815 TIP3     1155     TIP3     H2       HT       0.417000       1.00800           0
     20816 TIP3     1156     TIP3     OH2      OT      -0.834000       15.9994           0
     20817 TIP3     1156     TIP3     H1       HT       0.417000       1.00800           0
     20818 TIP3     1156     TIP3     H2       HT       0.417000       1.00800           0
     20819 TIP3     1157     TIP3     OH2      OT      -0.834000       15.9994           0
     20820 TIP3     1157     TIP3     H1       HT       0.417000       1.00800           0
     20821 TIP3     1157     TIP3     H2       HT       0.417000       1.00800           0
     20822 TIP3     1158     TIP3     OH2      OT      -0.834000       15.9994           0
     20823 TIP3     1158     TIP3     H1       HT       0.417000       1.00800           0
     20824 TIP3     1158     TIP3     H2       HT       0.417000       1.00800           0
     20825 TIP3     1159     TIP3     OH2      OT      -0.834000       15.9994           0
     20826 TIP3     1159     TIP3     H1       HT       0.417000       1.00800           0
     20827 TIP3     1159     TIP3     H2       HT       0.417000       1.00800           0
     20828 TIP3     1160     TIP3     OH2      OT      -0.834000       15.9994           0
     20829 TIP3     1160     TIP3     H1       HT       0.417000       1.00800           0
     20830 TIP3     1160     TIP3     H2       HT       0.417000       1.00800           0
     20831 TIP3     1161     TIP3     OH2      OT      -0.834000       15.9994           0
     20832 TIP3     1161     TIP3     H1       HT       0.417000       1.00800           0
     20833 TIP3     1161     TIP3     H2       HT       0.417000       1.00800           0
     20834 TIP3     1162     TIP3     OH2      OT      -0.834000       15.9994           0
     20835 TIP3     1162     TIP3     H1       HT       0.417000       1.00800           0
     20836 TIP3     1162     TIP3     H2       HT       0.417000       1.00800           0
     20837 TIP3     1163     TIP3     OH2      OT      -0.834000       15.9994           0
     20838 TIP3     1163     TIP3     H1       HT       0.417000       1.00800           0
     20839 TIP3     1163     TIP3     H2       HT       0.417000       1.00800           0
     20840 TIP3     1164     TIP3     OH2      OT      -0.834000       15.9994           0
     20841 TIP3     1164     TIP3     H1       HT       0.417000       1.00800           0
     20842 TIP3     1164     TIP3     H2       HT       0.417000       1.00800           0
     20843 TIP3     1165     TIP3     OH2      OT      -0.834000       15.9994           0
     20844 TIP3     1165     TIP3     H1       HT       0.417000       1.00800           0
     20845 TIP3     1165     TIP3     H2       HT       0.417000       1.00800           0
     20846 TIP3     1166     TIP3     OH2      OT      -0.834000       15.9994           0
     20847 TIP3     1166     TIP3     H1       HT       0.417000       1.00800           0
     20848 TIP3     1166     TIP3     H2       HT       0.417000       1.00800           0
     20849 TIP3     1167     TIP3     OH2      OT      -0.834000       15.9994           0
     20850 TIP3     1167     TIP3     H1       HT       0.417000       1.00800           0
     20851 TIP3     1167     TIP3     H2       HT       0.417000       1.00800           0
     20852 TIP3     1168     TIP3     OH2      OT      -0.834000       15.9994           0
     20853 TIP3     1168     TIP3     H1       HT       0.417000       1.00800           0
     20854 TIP3     1168     TIP3     H2       HT       0.417000       1.00800           0
     20855 TIP3     1169     TIP3     OH2      OT      -0.834000       15.9994           0
     20856 TIP3     1169     TIP3     H1       HT       0.417000       1.00800           0
     20857 TIP3     1169     TIP3     H2       HT       0.417000       1.00800           0
     20858 TIP3     1170     TIP3     OH2      OT      -0.834000       15.9994           0
     20859 TIP3     1170     TIP3     H1       HT       0.417000       1.00800           0
     20860 TIP3     1170     TIP3     H2       HT       0.417000       1.00800           0
     20861 TIP3     1171     TIP3     OH2      OT      -0.834000       15.9994           0
     20862 TIP3     1171     TIP3     H1       HT       0.417000       1.00800           0
     20863 TIP3     1171     TIP3     H2       HT       0.417000       1.00800           0
     20864 TIP3     1172     TIP3     OH2      OT      -0.834000       15.9994           0
     20865 TIP3     1172     TIP3     H1       HT       0.417000       1.00800           0
     20866 TIP3     1172     TIP3     H2       HT       0.417000       1.00800           0
     20867 TIP3     1173     TIP3     OH2      OT      -0.834000       15.9994           0
     20868 TIP3     1173     TIP3     H1       HT       0.417000       1.00800           0
     20869 TIP3     1173     TIP3     H2       HT       0.417000       1.00800           0
     20870 TIP3     1174     TIP3     OH2      OT      -0.834000       15.9994           0
     20871 TIP3     1174     TIP3     H1       HT       0.417000       1.00800           0
     20872 TIP3     1174     TIP3     H2       HT       0.417000       1.00800           0
     20873 TIP3     1175     TIP3     OH2      OT      -0.834000       15.9994           0
     20874 TIP3     1175     TIP3     H1       HT       0.417000       1.00800           0
     20875 TIP3     1175     TIP3     H2       HT       0.417000       1.00800           0
     20876 TIP3     1176     TIP3     OH2      OT      -0.834000       15.9994           0
     20877 TIP3     1176     TIP3     H1       HT       0.417000       1.00800           0
     20878 TIP3     1176     TIP3     H2       HT       0.417000       1.00800           0
     20879 TIP3     1177     TIP3     OH2      OT      -0.834000       15.9994           0
     20880 TIP3     1177     TIP3     H1       HT       0.417000       1.00800           0
     20881 TIP3     1177     TIP3     H2       HT       0.417000       1.00800           0
     20882 TIP3     1178     TIP3     OH2      OT      -0.834000       15.9994           0
     20883 TIP3     1178     TIP3     H1       HT       0.417000       1.00800           0
     20884 TIP3     1178     TIP3     H2       HT       0.417000       1.00800           0
     20885 TIP3     1179     TIP3     OH2      OT      -0.834000       15.9994           0
     20886 TIP3     1179     TIP3     H1       HT       0.417000       1.00800           0
     20887 TIP3     1179     TIP3     H2       HT       0.417000       1.00800           0
     20888 TIP3     1180     TIP3     OH2      OT      -0.834000       15.9994           0
     20889 TIP3     1180     TIP3     H1       HT       0.417000       1.00800           0
     20890 TIP3     1180     TIP3     H2       HT       0.417000       1.00800           0
     20891 TIP3     1181     TIP3     OH2      OT      -0.834000       15.9994           0
     20892 TIP3     1181     TIP3     H1       HT       0.417000       1.00800           0
     20893 TIP3     1181     TIP3     H2       HT       0.417000       1.00800           0
     20894 TIP3     1182     TIP3     OH2      OT      -0.834000       15.9994           0
     20895 TIP3     1182     TIP3     H1       HT       0.417000       1.00800           0
     20896 TIP3     1182     TIP3     H2       HT       0.417000       1.00800           0
     20897 TIP3     1183     TIP3     OH2      OT      -0.834000       15.9994           0
     20898 TIP3     1183     TIP3     H1       HT       0.417000       1.00800           0
     20899 TIP3     1183     TIP3     H2       HT       0.417000       1.00800           0
     20900 TIP3     1184     TIP3     OH2      OT      -0.834000       15.9994           0
     20901 TIP3     1184     TIP3     H1       HT       0.417000       1.00800           0
     20902 TIP3     1184     TIP3     H2       HT       0.417000       1.00800           0
     20903 TIP3     1185     TIP3     OH2      OT      -0.834000       15.9994           0
     20904 TIP3     1185     TIP3     H1       HT       0.417000       1.00800           0
     20905 TIP3     1185     TIP3     H2       HT       0.417000       1.00800           0
     20906 TIP3     1186     TIP3     OH2      OT      -0.834000       15.9994           0
     20907 TIP3     1186     TIP3     H1       HT       0.417000       1.00800           0
     20908 TIP3     1186     TIP3     H2       HT       0.417000       1.00800           0
     20909 TIP3     1187     TIP3     OH2      OT      -0.834000       15.9994           0
     20910 TIP3     1187     TIP3     H1       HT       0.417000       1.00800           0
     20911 TIP3     1187     TIP3     H2       HT       0.417000       1.00800           0
     20912 TIP3     1188     TIP3     OH2      OT      -0.834000       15.9994           0
     20913 TIP3     1188     TIP3     H1       HT       0.417000       1.00800           0
     20914 TIP3     1188     TIP3     H2       HT       0.417000       1.00800           0
     20915 TIP3     1189     TIP3     OH2      OT      -0.834000       15.9994           0
     20916 TIP3     1189     TIP3     H1       HT       0.417000       1.00800           0
     20917 TIP3     1189     TIP3     H2       HT       0.417000       1.00800           0
     20918 TIP3     1190     TIP3     OH2      OT      -0.834000       15.9994           0
     20919 TIP3     1190     TIP3     H1       HT       0.417000       1.00800           0
     20920 TIP3     1190     TIP3     H2       HT       0.417000       1.00800           0
     20921 TIP3     1191     TIP3     OH2      OT      -0.834000       15.9994           0
     20922 TIP3     1191     TIP3     H1       HT       0.417000       1.00800           0
     20923 TIP3     1191     TIP3     H2       HT       0.417000       1.00800           0
     20924 TIP3     1192     TIP3     OH2      OT      -0.834000       15.9994           0
     20925 TIP3     1192     TIP3     H1       HT       0.417000       1.00800           0
     20926 TIP3     1192     TIP3     H2       HT       0.417000       1.00800           0
     20927 TIP3     1193     TIP3     OH2      OT      -0.834000       15.9994           0
     20928 TIP3     1193     TIP3     H1       HT       0.417000       1.00800           0
     20929 TIP3     1193     TIP3     H2       HT       0.417000       1.00800           0
     20930 TIP3     1194     TIP3     OH2      OT      -0.834000       15.9994           0
     20931 TIP3     1194     TIP3     H1       HT       0.417000       1.00800           0
     20932 TIP3     1194     TIP3     H2       HT       0.417000       1.00800           0
     20933 TIP3     1195     TIP3     OH2      OT      -0.834000       15.9994           0
     20934 TIP3     1195     TIP3     H1       HT       0.417000       1.00800           0
     20935 TIP3     1195     TIP3     H2       HT       0.417000       1.00800           0
     20936 TIP3     1196     TIP3     OH2      OT      -0.834000       15.9994           0
     20937 TIP3     1196     TIP3     H1       HT       0.417000       1.00800           0
     20938 TIP3     1196     TIP3     H2       HT       0.417000       1.00800           0
     20939 TIP3     1197     TIP3     OH2      OT      -0.834000       15.9994           0
     20940 TIP3     1197     TIP3     H1       HT       0.417000       1.00800           0
     20941 TIP3     1197     TIP3     H2       HT       0.417000       1.00800           0
     20942 TIP3     1198     TIP3     OH2      OT      -0.834000       15.9994           0
     20943 TIP3     1198     TIP3     H1       HT       0.417000       1.00800           0
     20944 TIP3     1198     TIP3     H2       HT       0.417000       1.00800           0
     20945 TIP3     1199     TIP3     OH2      OT      -0.834000       15.9994           0
     20946 TIP3     1199     TIP3     H1       HT       0.417000       1.00800           0
     20947 TIP3     1199     TIP3     H2       HT       0.417000       1.00800           0
     20948 TIP3     1200     TIP3     OH2      OT      -0.834000       15.9994           0
     20949 TIP3     1200     TIP3     H1       HT       0.417000       1.00800           0
     20950 TIP3     1200     TIP3     H2       HT       0.417000       1.00800           0
     20951 TIP3     1201     TIP3     OH2      OT      -0.834000       15.9994           0
     20952 TIP3     1201     TIP3     H1       HT       0.417000       1.00800           0
     20953 TIP3     1201     TIP3     H2       HT       0.417000       1.00800           0
     20954 TIP3     1202     TIP3     OH2      OT      -0.834000       15.9994           0
     20955 TIP3     1202     TIP3     H1       HT       0.417000       1.00800           0
     20956 TIP3     1202     TIP3     H2       HT       0.417000       1.00800           0
     20957 TIP3     1203     TIP3     OH2      OT      -0.834000       15.9994           0
     20958 TIP3     1203     TIP3     H1       HT       0.417000       1.00800           0
     20959 TIP3     1203     TIP3     H2       HT       0.417000       1.00800           0
     20960 TIP3     1204     TIP3     OH2      OT      -0.834000       15.9994           0
     20961 TIP3     1204     TIP3     H1       HT       0.417000       1.00800           0
     20962 TIP3     1204     TIP3     H2       HT       0.417000       1.00800           0
     20963 TIP3     1205     TIP3     OH2      OT      -0.834000       15.9994           0
     20964 TIP3     1205     TIP3     H1       HT       0.417000       1.00800           0
     20965 TIP3     1205     TIP3     H2       HT       0.417000       1.00800           0
     20966 TIP3     1206     TIP3     OH2      OT      -0.834000       15.9994           0
     20967 TIP3     1206     TIP3     H1       HT       0.417000       1.00800           0
     20968 TIP3     1206     TIP3     H2       HT       0.417000       1.00800           0
     20969 TIP3     1207     TIP3     OH2      OT      -0.834000       15.9994           0
     20970 TIP3     1207     TIP3     H1       HT       0.417000       1.00800           0
     20971 TIP3     1207     TIP3     H2       HT       0.417000       1.00800           0
     20972 TIP3     1208     TIP3     OH2      OT      -0.834000       15.9994           0
     20973 TIP3     1208     TIP3     H1       HT       0.417000       1.00800           0
     20974 TIP3     1208     TIP3     H2       HT       0.417000       1.00800           0
     20975 TIP3     1209     TIP3     OH2      OT      -0.834000       15.9994           0
     20976 TIP3     1209     TIP3     H1       HT       0.417000       1.00800           0
     20977 TIP3     1209     TIP3     H2       HT       0.417000       1.00800           0
     20978 TIP3     1210     TIP3     OH2      OT      -0.834000       15.9994           0
     20979 TIP3     1210     TIP3     H1       HT       0.417000       1.00800           0
     20980 TIP3     1210     TIP3     H2       HT       0.417000       1.00800           0
     20981 TIP3     1211     TIP3     OH2      OT      -0.834000       15.9994           0
     20982 TIP3     1211     TIP3     H1       HT       0.417000       1.00800           0
     20983 TIP3     1211     TIP3     H2       HT       0.417000       1.00800           0
     20984 TIP3     1212     TIP3     OH2      OT      -0.834000       15.9994           0
     20985 TIP3     1212     TIP3     H1       HT       0.417000       1.00800           0
     20986 TIP3     1212     TIP3     H2       HT       0.417000       1.00800           0
     20987 TIP3     1213     TIP3     OH2      OT      -0.834000       15.9994           0
     20988 TIP3     1213     TIP3     H1       HT       0.417000       1.00800           0
     20989 TIP3     1213     TIP3     H2       HT       0.417000       1.00800           0
     20990 TIP3     1214     TIP3     OH2      OT      -0.834000       15.9994           0
     20991 TIP3     1214     TIP3     H1       HT       0.417000       1.00800           0
     20992 TIP3     1214     TIP3     H2       HT       0.417000       1.00800           0
     20993 TIP3     1215     TIP3     OH2      OT      -0.834000       15.9994           0
     20994 TIP3     1215     TIP3     H1       HT       0.417000       1.00800           0
     20995 TIP3     1215     TIP3     H2       HT       0.417000       1.00800           0
     20996 TIP3     1216     TIP3     OH2      OT      -0.834000       15.9994           0
     20997 TIP3     1216     TIP3     H1       HT       0.417000       1.00800           0
     20998 TIP3     1216     TIP3     H2       HT       0.417000       1.00800           0
     20999 TIP3     1217     TIP3     OH2      OT      -0.834000       15.9994           0
     21000 TIP3     1217     TIP3     H1       HT       0.417000       1.00800           0
     21001 TIP3     1217     TIP3     H2       HT       0.417000       1.00800           0
     21002 TIP3     1218     TIP3     OH2      OT      -0.834000       15.9994           0
     21003 TIP3     1218     TIP3     H1       HT       0.417000       1.00800           0
     21004 TIP3     1218     TIP3     H2       HT       0.417000       1.00800           0
     21005 TIP3     1219     TIP3     OH2      OT      -0.834000       15.9994           0
     21006 TIP3     1219     TIP3     H1       HT       0.417000       1.00800           0
     21007 TIP3     1219     TIP3     H2       HT       0.417000       1.00800           0
     21008 TIP3     1220     TIP3     OH2      OT      -0.834000       15.9994           0
     21009 TIP3     1220     TIP3     H1       HT       0.417000       1.00800           0
     21010 TIP3     1220     TIP3     H2       HT       0.417000       1.00800           0
     21011 TIP3     1221     TIP3     OH2      OT      -0.834000       15.9994           0
     21012 TIP3     1221     TIP3     H1       HT       0.417000       1.00800           0
     21013 TIP3     1221     TIP3     H2       HT       0.417000       1.00800           0
     21014 TIP3     1222     TIP3     OH2      OT      -0.834000       15.9994           0
     21015 TIP3     1222     TIP3     H1       HT       0.417000       1.00800           0
     21016 TIP3     1222     TIP3     H2       HT       0.417000       1.00800           0
     21017 TIP3     1223     TIP3     OH2      OT      -0.834000       15.9994           0
     21018 TIP3     1223     TIP3     H1       HT       0.417000       1.00800           0
     21019 TIP3     1223     TIP3     H2       HT       0.417000       1.00800           0
     21020 TIP3     1224     TIP3     OH2      OT      -0.834000       15.9994           0
     21021 TIP3     1224     TIP3     H1       HT       0.417000       1.00800           0
     21022 TIP3     1224     TIP3     H2       HT       0.417000       1.00800           0
     21023 TIP3     1225     TIP3     OH2      OT      -0.834000       15.9994           0
     21024 TIP3     1225     TIP3     H1       HT       0.417000       1.00800           0
     21025 TIP3     1225     TIP3     H2       HT       0.417000       1.00800           0
     21026 TIP3     1226     TIP3     OH2      OT      -0.834000       15.9994           0
     21027 TIP3     1226     TIP3     H1       HT       0.417000       1.00800           0
     21028 TIP3     1226     TIP3     H2       HT       0.417000       1.00800           0
     21029 TIP3     1227     TIP3     OH2      OT      -0.834000       15.9994           0
     21030 TIP3     1227     TIP3     H1       HT       0.417000       1.00800           0
     21031 TIP3     1227     TIP3     H2       HT       0.417000       1.00800           0
     21032 TIP3     1228     TIP3     OH2      OT      -0.834000       15.9994           0
     21033 TIP3     1228     TIP3     H1       HT       0.417000       1.00800           0
     21034 TIP3     1228     TIP3     H2       HT       0.417000       1.00800           0
     21035 TIP3     1229     TIP3     OH2      OT      -0.834000       15.9994           0
     21036 TIP3     1229     TIP3     H1       HT       0.417000       1.00800           0
     21037 TIP3     1229     TIP3     H2       HT       0.417000       1.00800           0
     21038 TIP3     1230     TIP3     OH2      OT      -0.834000       15.9994           0
     21039 TIP3     1230     TIP3     H1       HT       0.417000       1.00800           0
     21040 TIP3     1230     TIP3     H2       HT       0.417000       1.00800           0
     21041 TIP3     1231     TIP3     OH2      OT      -0.834000       15.9994           0
     21042 TIP3     1231     TIP3     H1       HT       0.417000       1.00800           0
     21043 TIP3     1231     TIP3     H2       HT       0.417000       1.00800           0
     21044 TIP3     1232     TIP3     OH2      OT      -0.834000       15.9994           0
     21045 TIP3     1232     TIP3     H1       HT       0.417000       1.00800           0
     21046 TIP3     1232     TIP3     H2       HT       0.417000       1.00800           0
     21047 TIP3     1233     TIP3     OH2      OT      -0.834000       15.9994           0
     21048 TIP3     1233     TIP3     H1       HT       0.417000       1.00800           0
     21049 TIP3     1233     TIP3     H2       HT       0.417000       1.00800           0
     21050 TIP3     1234     TIP3     OH2      OT      -0.834000       15.9994           0
     21051 TIP3     1234     TIP3     H1       HT       0.417000       1.00800           0
     21052 TIP3     1234     TIP3     H2       HT       0.417000       1.00800           0
     21053 TIP3     1235     TIP3     OH2      OT      -0.834000       15.9994           0
     21054 TIP3     1235     TIP3     H1       HT       0.417000       1.00800           0
     21055 TIP3     1235     TIP3     H2       HT       0.417000       1.00800           0
     21056 TIP3     1236     TIP3     OH2      OT      -0.834000       15.9994           0
     21057 TIP3     1236     TIP3     H1       HT       0.417000       1.00800           0
     21058 TIP3     1236     TIP3     H2       HT       0.417000       1.00800           0
     21059 TIP3     1237     TIP3     OH2      OT      -0.834000       15.9994           0
     21060 TIP3     1237     TIP3     H1       HT       0.417000       1.00800           0
     21061 TIP3     1237     TIP3     H2       HT       0.417000       1.00800           0
     21062 TIP3     1238     TIP3     OH2      OT      -0.834000       15.9994           0
     21063 TIP3     1238     TIP3     H1       HT       0.417000       1.00800           0
     21064 TIP3     1238     TIP3     H2       HT       0.417000       1.00800           0
     21065 TIP3     1239     TIP3     OH2      OT      -0.834000       15.9994           0
     21066 TIP3     1239     TIP3     H1       HT       0.417000       1.00800           0
     21067 TIP3     1239     TIP3     H2       HT       0.417000       1.00800           0
     21068 TIP3     1240     TIP3     OH2      OT      -0.834000       15.9994           0
     21069 TIP3     1240     TIP3     H1       HT       0.417000       1.00800           0
     21070 TIP3     1240     TIP3     H2       HT       0.417000       1.00800           0
     21071 TIP3     1241     TIP3     OH2      OT      -0.834000       15.9994           0
     21072 TIP3     1241     TIP3     H1       HT       0.417000       1.00800           0
     21073 TIP3     1241     TIP3     H2       HT       0.417000       1.00800           0
     21074 TIP3     1242     TIP3     OH2      OT      -0.834000       15.9994           0
     21075 TIP3     1242     TIP3     H1       HT       0.417000       1.00800           0
     21076 TIP3     1242     TIP3     H2       HT       0.417000       1.00800           0
     21077 TIP3     1243     TIP3     OH2      OT      -0.834000       15.9994           0
     21078 TIP3     1243     TIP3     H1       HT       0.417000       1.00800           0
     21079 TIP3     1243     TIP3     H2       HT       0.417000       1.00800           0
     21080 TIP3     1244     TIP3     OH2      OT      -0.834000       15.9994           0
     21081 TIP3     1244     TIP3     H1       HT       0.417000       1.00800           0
     21082 TIP3     1244     TIP3     H2       HT       0.417000       1.00800           0
     21083 TIP3     1245     TIP3     OH2      OT      -0.834000       15.9994           0
     21084 TIP3     1245     TIP3     H1       HT       0.417000       1.00800           0
     21085 TIP3     1245     TIP3     H2       HT       0.417000       1.00800           0
     21086 TIP3     1246     TIP3     OH2      OT      -0.834000       15.9994           0
     21087 TIP3     1246     TIP3     H1       HT       0.417000       1.00800           0
     21088 TIP3     1246     TIP3     H2       HT       0.417000       1.00800           0
     21089 TIP3     1247     TIP3     OH2      OT      -0.834000       15.9994           0
     21090 TIP3     1247     TIP3     H1       HT       0.417000       1.00800           0
     21091 TIP3     1247     TIP3     H2       HT       0.417000       1.00800           0
     21092 TIP3     1248     TIP3     OH2      OT      -0.834000       15.9994           0
     21093 TIP3     1248     TIP3     H1       HT       0.417000       1.00800           0
     21094 TIP3     1248     TIP3     H2       HT       0.417000       1.00800           0
     21095 TIP3     1249     TIP3     OH2      OT      -0.834000       15.9994           0
     21096 TIP3     1249     TIP3     H1       HT       0.417000       1.00800           0
     21097 TIP3     1249     TIP3     H2       HT       0.417000       1.00800           0
     21098 TIP3     1250     TIP3     OH2      OT      -0.834000       15.9994           0
     21099 TIP3     1250     TIP3     H1       HT       0.417000       1.00800           0
     21100 TIP3     1250     TIP3     H2       HT       0.417000       1.00800           0
     21101 TIP3     1251     TIP3     OH2      OT      -0.834000       15.9994           0
     21102 TIP3     1251     TIP3     H1       HT       0.417000       1.00800           0
     21103 TIP3     1251     TIP3     H2       HT       0.417000       1.00800           0
     21104 TIP3     1252     TIP3     OH2      OT      -0.834000       15.9994           0
     21105 TIP3     1252     TIP3     H1       HT       0.417000       1.00800           0
     21106 TIP3     1252     TIP3     H2       HT       0.417000       1.00800           0
     21107 TIP3     1253     TIP3     OH2      OT      -0.834000       15.9994           0
     21108 TIP3     1253     TIP3     H1       HT       0.417000       1.00800           0
     21109 TIP3     1253     TIP3     H2       HT       0.417000       1.00800           0
     21110 TIP3     1254     TIP3     OH2      OT      -0.834000       15.9994           0
     21111 TIP3     1254     TIP3     H1       HT       0.417000       1.00800           0
     21112 TIP3     1254     TIP3     H2       HT       0.417000       1.00800           0
     21113 TIP3     1255     TIP3     OH2      OT      -0.834000       15.9994           0
     21114 TIP3     1255     TIP3     H1       HT       0.417000       1.00800           0
     21115 TIP3     1255     TIP3     H2       HT       0.417000       1.00800           0
     21116 TIP3     1256     TIP3     OH2      OT      -0.834000       15.9994           0
     21117 TIP3     1256     TIP3     H1       HT       0.417000       1.00800           0
     21118 TIP3     1256     TIP3     H2       HT       0.417000       1.00800           0
     21119 TIP3     1257     TIP3     OH2      OT      -0.834000       15.9994           0
     21120 TIP3     1257     TIP3     H1       HT       0.417000       1.00800           0
     21121 TIP3     1257     TIP3     H2       HT       0.417000       1.00800           0
     21122 TIP3     1258     TIP3     OH2      OT      -0.834000       15.9994           0
     21123 TIP3     1258     TIP3     H1       HT       0.417000       1.00800           0
     21124 TIP3     1258     TIP3     H2       HT       0.417000       1.00800           0
     21125 TIP3     1259     TIP3     OH2      OT      -0.834000       15.9994           0
     21126 TIP3     1259     TIP3     H1       HT       0.417000       1.00800           0
     21127 TIP3     1259     TIP3     H2       HT       0.417000       1.00800           0
     21128 TIP3     1260     TIP3     OH2      OT      -0.834000       15.9994           0
     21129 TIP3     1260     TIP3     H1       HT       0.417000       1.00800           0
     21130 TIP3     1260     TIP3     H2       HT       0.417000       1.00800           0
     21131 TIP3     1261     TIP3     OH2      OT      -0.834000       15.9994           0
     21132 TIP3     1261     TIP3     H1       HT       0.417000       1.00800           0
     21133 TIP3     1261     TIP3     H2       HT       0.417000       1.00800           0
     21134 TIP3     1262     TIP3     OH2      OT      -0.834000       15.9994           0
     21135 TIP3     1262     TIP3     H1       HT       0.417000       1.00800           0
     21136 TIP3     1262     TIP3     H2       HT       0.417000       1.00800           0
     21137 TIP3     1263     TIP3     OH2      OT      -0.834000       15.9994           0
     21138 TIP3     1263     TIP3     H1       HT       0.417000       1.00800           0
     21139 TIP3     1263     TIP3     H2       HT       0.417000       1.00800           0
     21140 TIP3     1264     TIP3     OH2      OT      -0.834000       15.9994           0
     21141 TIP3     1264     TIP3     H1       HT       0.417000       1.00800           0
     21142 TIP3     1264     TIP3     H2       HT       0.417000       1.00800           0
     21143 TIP3     1265     TIP3     OH2      OT      -0.834000       15.9994           0
     21144 TIP3     1265     TIP3     H1       HT       0.417000       1.00800           0
     21145 TIP3     1265     TIP3     H2       HT       0.417000       1.00800           0
     21146 TIP3     1266     TIP3     OH2      OT      -0.834000       15.9994           0
     21147 TIP3     1266     TIP3     H1       HT       0.417000       1.00800           0
     21148 TIP3     1266     TIP3     H2       HT       0.417000       1.00800           0
     21149 TIP3     1267     TIP3     OH2      OT      -0.834000       15.9994           0
     21150 TIP3     1267     TIP3     H1       HT       0.417000       1.00800           0
     21151 TIP3     1267     TIP3     H2       HT       0.417000       1.00800           0
     21152 TIP3     1268     TIP3     OH2      OT      -0.834000       15.9994           0
     21153 TIP3     1268     TIP3     H1       HT       0.417000       1.00800           0
     21154 TIP3     1268     TIP3     H2       HT       0.417000       1.00800           0
     21155 TIP3     1269     TIP3     OH2      OT      -0.834000       15.9994           0
     21156 TIP3     1269     TIP3     H1       HT       0.417000       1.00800           0
     21157 TIP3     1269     TIP3     H2       HT       0.417000       1.00800           0
     21158 TIP3     1270     TIP3     OH2      OT      -0.834000       15.9994           0
     21159 TIP3     1270     TIP3     H1       HT       0.417000       1.00800           0
     21160 TIP3     1270     TIP3     H2       HT       0.417000       1.00800           0
     21161 TIP3     1271     TIP3     OH2      OT      -0.834000       15.9994           0
     21162 TIP3     1271     TIP3     H1       HT       0.417000       1.00800           0
     21163 TIP3     1271     TIP3     H2       HT       0.417000       1.00800           0
     21164 TIP3     1272     TIP3     OH2      OT      -0.834000       15.9994           0
     21165 TIP3     1272     TIP3     H1       HT       0.417000       1.00800           0
     21166 TIP3     1272     TIP3     H2       HT       0.417000       1.00800           0
     21167 TIP3     1273     TIP3     OH2      OT      -0.834000       15.9994           0
     21168 TIP3     1273     TIP3     H1       HT       0.417000       1.00800           0
     21169 TIP3     1273     TIP3     H2       HT       0.417000       1.00800           0
     21170 TIP3     1274     TIP3     OH2      OT      -0.834000       15.9994           0
     21171 TIP3     1274     TIP3     H1       HT       0.417000       1.00800           0
     21172 TIP3     1274     TIP3     H2       HT       0.417000       1.00800           0
     21173 TIP3     1275     TIP3     OH2      OT      -0.834000       15.9994           0
     21174 TIP3     1275     TIP3     H1       HT       0.417000       1.00800           0
     21175 TIP3     1275     TIP3     H2       HT       0.417000       1.00800           0
     21176 TIP3     1276     TIP3     OH2      OT      -0.834000       15.9994           0
     21177 TIP3     1276     TIP3     H1       HT       0.417000       1.00800           0
     21178 TIP3     1276     TIP3     H2       HT       0.417000       1.00800           0
     21179 TIP3     1277     TIP3     OH2      OT      -0.834000       15.9994           0
     21180 TIP3     1277     TIP3     H1       HT       0.417000       1.00800           0
     21181 TIP3     1277     TIP3     H2       HT       0.417000       1.00800           0
     21182 TIP3     1278     TIP3     OH2      OT      -0.834000       15.9994           0
     21183 TIP3     1278     TIP3     H1       HT       0.417000       1.00800           0
     21184 TIP3     1278     TIP3     H2       HT       0.417000       1.00800           0
     21185 TIP3     1279     TIP3     OH2      OT      -0.834000       15.9994           0
     21186 TIP3     1279     TIP3     H1       HT       0.417000       1.00800           0
     21187 TIP3     1279     TIP3     H2       HT       0.417000       1.00800           0
     21188 TIP3     1280     TIP3     OH2      OT      -0.834000       15.9994           0
     21189 TIP3     1280     TIP3     H1       HT       0.417000       1.00800           0
     21190 TIP3     1280     TIP3     H2       HT       0.417000       1.00800           0
     21191 TIP3     1281     TIP3     OH2      OT      -0.834000       15.9994           0
     21192 TIP3     1281     TIP3     H1       HT       0.417000       1.00800           0
     21193 TIP3     1281     TIP3     H2       HT       0.417000       1.00800           0
     21194 TIP3     1282     TIP3     OH2      OT      -0.834000       15.9994           0
     21195 TIP3     1282     TIP3     H1       HT       0.417000       1.00800           0
     21196 TIP3     1282     TIP3     H2       HT       0.417000       1.00800           0
     21197 TIP3     1283     TIP3     OH2      OT      -0.834000       15.9994           0
     21198 TIP3     1283     TIP3     H1       HT       0.417000       1.00800           0
     21199 TIP3     1283     TIP3     H2       HT       0.417000       1.00800           0
     21200 TIP3     1284     TIP3     OH2      OT      -0.834000       15.9994           0
     21201 TIP3     1284     TIP3     H1       HT       0.417000       1.00800           0
     21202 TIP3     1284     TIP3     H2       HT       0.417000       1.00800           0
     21203 TIP3     1285     TIP3     OH2      OT      -0.834000       15.9994           0
     21204 TIP3     1285     TIP3     H1       HT       0.417000       1.00800           0
     21205 TIP3     1285     TIP3     H2       HT       0.417000       1.00800           0
     21206 TIP3     1286     TIP3     OH2      OT      -0.834000       15.9994           0
     21207 TIP3     1286     TIP3     H1       HT       0.417000       1.00800           0
     21208 TIP3     1286     TIP3     H2       HT       0.417000       1.00800           0
     21209 TIP3     1287     TIP3     OH2      OT      -0.834000       15.9994           0
     21210 TIP3     1287     TIP3     H1       HT       0.417000       1.00800           0
     21211 TIP3     1287     TIP3     H2       HT       0.417000       1.00800           0
     21212 TIP3     1288     TIP3     OH2      OT      -0.834000       15.9994           0
     21213 TIP3     1288     TIP3     H1       HT       0.417000       1.00800           0
     21214 TIP3     1288     TIP3     H2       HT       0.417000       1.00800           0
     21215 TIP3     1289     TIP3     OH2      OT      -0.834000       15.9994           0
     21216 TIP3     1289     TIP3     H1       HT       0.417000       1.00800           0
     21217 TIP3     1289     TIP3     H2       HT       0.417000       1.00800           0
     21218 TIP3     1290     TIP3     OH2      OT      -0.834000       15.9994           0
     21219 TIP3     1290     TIP3     H1       HT       0.417000       1.00800           0
     21220 TIP3     1290     TIP3     H2       HT       0.417000       1.00800           0
     21221 TIP3     1291     TIP3     OH2      OT      -0.834000       15.9994           0
     21222 TIP3     1291     TIP3     H1       HT       0.417000       1.00800           0
     21223 TIP3     1291     TIP3     H2       HT       0.417000       1.00800           0
     21224 TIP3     1292     TIP3     OH2      OT      -0.834000       15.9994           0
     21225 TIP3     1292     TIP3     H1       HT       0.417000       1.00800           0
     21226 TIP3     1292     TIP3     H2       HT       0.417000       1.00800           0
     21227 TIP3     1293     TIP3     OH2      OT      -0.834000       15.9994           0
     21228 TIP3     1293     TIP3     H1       HT       0.417000       1.00800           0
     21229 TIP3     1293     TIP3     H2       HT       0.417000       1.00800           0
     21230 TIP3     1294     TIP3     OH2      OT      -0.834000       15.9994           0
     21231 TIP3     1294     TIP3     H1       HT       0.417000       1.00800           0
     21232 TIP3     1294     TIP3     H2       HT       0.417000       1.00800           0
     21233 TIP3     1295     TIP3     OH2      OT      -0.834000       15.9994           0
     21234 TIP3     1295     TIP3     H1       HT       0.417000       1.00800           0
     21235 TIP3     1295     TIP3     H2       HT       0.417000       1.00800           0
     21236 TIP3     1296     TIP3     OH2      OT      -0.834000       15.9994           0
     21237 TIP3     1296     TIP3     H1       HT       0.417000       1.00800           0
     21238 TIP3     1296     TIP3     H2       HT       0.417000       1.00800           0
     21239 TIP3     1297     TIP3     OH2      OT      -0.834000       15.9994           0
     21240 TIP3     1297     TIP3     H1       HT       0.417000       1.00800           0
     21241 TIP3     1297     TIP3     H2       HT       0.417000       1.00800           0
     21242 TIP3     1298     TIP3     OH2      OT      -0.834000       15.9994           0
     21243 TIP3     1298     TIP3     H1       HT       0.417000       1.00800           0
     21244 TIP3     1298     TIP3     H2       HT       0.417000       1.00800           0
     21245 TIP3     1299     TIP3     OH2      OT      -0.834000       15.9994           0
     21246 TIP3     1299     TIP3     H1       HT       0.417000       1.00800           0
     21247 TIP3     1299     TIP3     H2       HT       0.417000       1.00800           0
     21248 TIP3     1300     TIP3     OH2      OT      -0.834000       15.9994           0
     21249 TIP3     1300     TIP3     H1       HT       0.417000       1.00800           0
     21250 TIP3     1300     TIP3     H2       HT       0.417000       1.00800           0
     21251 TIP3     1301     TIP3     OH2      OT      -0.834000       15.9994           0
     21252 TIP3     1301     TIP3     H1       HT       0.417000       1.00800           0
     21253 TIP3     1301     TIP3     H2       HT       0.417000       1.00800           0
     21254 TIP3     1302     TIP3     OH2      OT      -0.834000       15.9994           0
     21255 TIP3     1302     TIP3     H1       HT       0.417000       1.00800           0
     21256 TIP3     1302     TIP3     H2       HT       0.417000       1.00800           0
     21257 TIP3     1303     TIP3     OH2      OT      -0.834000       15.9994           0
     21258 TIP3     1303     TIP3     H1       HT       0.417000       1.00800           0
     21259 TIP3     1303     TIP3     H2       HT       0.417000       1.00800           0
     21260 TIP3     1304     TIP3     OH2      OT      -0.834000       15.9994           0
     21261 TIP3     1304     TIP3     H1       HT       0.417000       1.00800           0
     21262 TIP3     1304     TIP3     H2       HT       0.417000       1.00800           0
     21263 TIP3     1305     TIP3     OH2      OT      -0.834000       15.9994           0
     21264 TIP3     1305     TIP3     H1       HT       0.417000       1.00800           0
     21265 TIP3     1305     TIP3     H2       HT       0.417000       1.00800           0
     21266 TIP3     1306     TIP3     OH2      OT      -0.834000       15.9994           0
     21267 TIP3     1306     TIP3     H1       HT       0.417000       1.00800           0
     21268 TIP3     1306     TIP3     H2       HT       0.417000       1.00800           0
     21269 TIP3     1307     TIP3     OH2      OT      -0.834000       15.9994           0
     21270 TIP3     1307     TIP3     H1       HT       0.417000       1.00800           0
     21271 TIP3     1307     TIP3     H2       HT       0.417000       1.00800           0
     21272 TIP3     1308     TIP3     OH2      OT      -0.834000       15.9994           0
     21273 TIP3     1308     TIP3     H1       HT       0.417000       1.00800           0
     21274 TIP3     1308     TIP3     H2       HT       0.417000       1.00800           0
     21275 TIP3     1309     TIP3     OH2      OT      -0.834000       15.9994           0
     21276 TIP3     1309     TIP3     H1       HT       0.417000       1.00800           0
     21277 TIP3     1309     TIP3     H2       HT       0.417000       1.00800           0
     21278 TIP3     1310     TIP3     OH2      OT      -0.834000       15.9994           0
     21279 TIP3     1310     TIP3     H1       HT       0.417000       1.00800           0
     21280 TIP3     1310     TIP3     H2       HT       0.417000       1.00800           0
     21281 TIP3     1311     TIP3     OH2      OT      -0.834000       15.9994           0
     21282 TIP3     1311     TIP3     H1       HT       0.417000       1.00800           0
     21283 TIP3     1311     TIP3     H2       HT       0.417000       1.00800           0
     21284 TIP3     1312     TIP3     OH2      OT      -0.834000       15.9994           0
     21285 TIP3     1312     TIP3     H1       HT       0.417000       1.00800           0
     21286 TIP3     1312     TIP3     H2       HT       0.417000       1.00800           0
     21287 TIP3     1313     TIP3     OH2      OT      -0.834000       15.9994           0
     21288 TIP3     1313     TIP3     H1       HT       0.417000       1.00800           0
     21289 TIP3     1313     TIP3     H2       HT       0.417000       1.00800           0
     21290 TIP3     1314     TIP3     OH2      OT      -0.834000       15.9994           0
     21291 TIP3     1314     TIP3     H1       HT       0.417000       1.00800           0
     21292 TIP3     1314     TIP3     H2       HT       0.417000       1.00800           0
     21293 TIP3     1315     TIP3     OH2      OT      -0.834000       15.9994           0
     21294 TIP3     1315     TIP3     H1       HT       0.417000       1.00800           0
     21295 TIP3     1315     TIP3     H2       HT       0.417000       1.00800           0
     21296 TIP3     1316     TIP3     OH2      OT      -0.834000       15.9994           0
     21297 TIP3     1316     TIP3     H1       HT       0.417000       1.00800           0
     21298 TIP3     1316     TIP3     H2       HT       0.417000       1.00800           0
     21299 TIP3     1317     TIP3     OH2      OT      -0.834000       15.9994           0
     21300 TIP3     1317     TIP3     H1       HT       0.417000       1.00800           0
     21301 TIP3     1317     TIP3     H2       HT       0.417000       1.00800           0
     21302 TIP3     1318     TIP3     OH2      OT      -0.834000       15.9994           0
     21303 TIP3     1318     TIP3     H1       HT       0.417000       1.00800           0
     21304 TIP3     1318     TIP3     H2       HT       0.417000       1.00800           0
     21305 TIP3     1319     TIP3     OH2      OT      -0.834000       15.9994           0
     21306 TIP3     1319     TIP3     H1       HT       0.417000       1.00800           0
     21307 TIP3     1319     TIP3     H2       HT       0.417000       1.00800           0
     21308 TIP3     1320     TIP3     OH2      OT      -0.834000       15.9994           0
     21309 TIP3     1320     TIP3     H1       HT       0.417000       1.00800           0
     21310 TIP3     1320     TIP3     H2       HT       0.417000       1.00800           0
     21311 TIP3     1321     TIP3     OH2      OT      -0.834000       15.9994           0
     21312 TIP3     1321     TIP3     H1       HT       0.417000       1.00800           0
     21313 TIP3     1321     TIP3     H2       HT       0.417000       1.00800           0
     21314 TIP3     1322     TIP3     OH2      OT      -0.834000       15.9994           0
     21315 TIP3     1322     TIP3     H1       HT       0.417000       1.00800           0
     21316 TIP3     1322     TIP3     H2       HT       0.417000       1.00800           0
     21317 TIP3     1323     TIP3     OH2      OT      -0.834000       15.9994           0
     21318 TIP3     1323     TIP3     H1       HT       0.417000       1.00800           0
     21319 TIP3     1323     TIP3     H2       HT       0.417000       1.00800           0
     21320 TIP3     1324     TIP3     OH2      OT      -0.834000       15.9994           0
     21321 TIP3     1324     TIP3     H1       HT       0.417000       1.00800           0
     21322 TIP3     1324     TIP3     H2       HT       0.417000       1.00800           0
     21323 TIP3     1325     TIP3     OH2      OT      -0.834000       15.9994           0
     21324 TIP3     1325     TIP3     H1       HT       0.417000       1.00800           0
     21325 TIP3     1325     TIP3     H2       HT       0.417000       1.00800           0
     21326 TIP3     1326     TIP3     OH2      OT      -0.834000       15.9994           0
     21327 TIP3     1326     TIP3     H1       HT       0.417000       1.00800           0
     21328 TIP3     1326     TIP3     H2       HT       0.417000       1.00800           0
     21329 TIP3     1327     TIP3     OH2      OT      -0.834000       15.9994           0
     21330 TIP3     1327     TIP3     H1       HT       0.417000       1.00800           0
     21331 TIP3     1327     TIP3     H2       HT       0.417000       1.00800           0
     21332 TIP3     1328     TIP3     OH2      OT      -0.834000       15.9994           0
     21333 TIP3     1328     TIP3     H1       HT       0.417000       1.00800           0
     21334 TIP3     1328     TIP3     H2       HT       0.417000       1.00800           0
     21335 TIP3     1329     TIP3     OH2      OT      -0.834000       15.9994           0
     21336 TIP3     1329     TIP3     H1       HT       0.417000       1.00800           0
     21337 TIP3     1329     TIP3     H2       HT       0.417000       1.00800           0
     21338 TIP3     1330     TIP3     OH2      OT      -0.834000       15.9994           0
     21339 TIP3     1330     TIP3     H1       HT       0.417000       1.00800           0
     21340 TIP3     1330     TIP3     H2       HT       0.417000       1.00800           0
     21341 TIP3     1331     TIP3     OH2      OT      -0.834000       15.9994           0
     21342 TIP3     1331     TIP3     H1       HT       0.417000       1.00800           0
     21343 TIP3     1331     TIP3     H2       HT       0.417000       1.00800           0
     21344 TIP3     1332     TIP3     OH2      OT      -0.834000       15.9994           0
     21345 TIP3     1332     TIP3     H1       HT       0.417000       1.00800           0
     21346 TIP3     1332     TIP3     H2       HT       0.417000       1.00800           0
     21347 TIP3     1333     TIP3     OH2      OT      -0.834000       15.9994           0
     21348 TIP3     1333     TIP3     H1       HT       0.417000       1.00800           0
     21349 TIP3     1333     TIP3     H2       HT       0.417000       1.00800           0
     21350 TIP3     1334     TIP3     OH2      OT      -0.834000       15.9994           0
     21351 TIP3     1334     TIP3     H1       HT       0.417000       1.00800           0
     21352 TIP3     1334     TIP3     H2       HT       0.417000       1.00800           0
     21353 TIP3     1335     TIP3     OH2      OT      -0.834000       15.9994           0
     21354 TIP3     1335     TIP3     H1       HT       0.417000       1.00800           0
     21355 TIP3     1335     TIP3     H2       HT       0.417000       1.00800           0
     21356 TIP3     1336     TIP3     OH2      OT      -0.834000       15.9994           0
     21357 TIP3     1336     TIP3     H1       HT       0.417000       1.00800           0
     21358 TIP3     1336     TIP3     H2       HT       0.417000       1.00800           0
     21359 TIP3     1337     TIP3     OH2      OT      -0.834000       15.9994           0
     21360 TIP3     1337     TIP3     H1       HT       0.417000       1.00800           0
     21361 TIP3     1337     TIP3     H2       HT       0.417000       1.00800           0
     21362 TIP3     1338     TIP3     OH2      OT      -0.834000       15.9994           0
     21363 TIP3     1338     TIP3     H1       HT       0.417000       1.00800           0
     21364 TIP3     1338     TIP3     H2       HT       0.417000       1.00800           0
     21365 TIP3     1339     TIP3     OH2      OT      -0.834000       15.9994           0
     21366 TIP3     1339     TIP3     H1       HT       0.417000       1.00800           0
     21367 TIP3     1339     TIP3     H2       HT       0.417000       1.00800           0
     21368 TIP3     1340     TIP3     OH2      OT      -0.834000       15.9994           0
     21369 TIP3     1340     TIP3     H1       HT       0.417000       1.00800           0
     21370 TIP3     1340     TIP3     H2       HT       0.417000       1.00800           0
     21371 TIP3     1341     TIP3     OH2      OT      -0.834000       15.9994           0
     21372 TIP3     1341     TIP3     H1       HT       0.417000       1.00800           0
     21373 TIP3     1341     TIP3     H2       HT       0.417000       1.00800           0
     21374 TIP3     1342     TIP3     OH2      OT      -0.834000       15.9994           0
     21375 TIP3     1342     TIP3     H1       HT       0.417000       1.00800           0
     21376 TIP3     1342     TIP3     H2       HT       0.417000       1.00800           0
     21377 TIP3     1343     TIP3     OH2      OT      -0.834000       15.9994           0
     21378 TIP3     1343     TIP3     H1       HT       0.417000       1.00800           0
     21379 TIP3     1343     TIP3     H2       HT       0.417000       1.00800           0
     21380 TIP3     1344     TIP3     OH2      OT      -0.834000       15.9994           0
     21381 TIP3     1344     TIP3     H1       HT       0.417000       1.00800           0
     21382 TIP3     1344     TIP3     H2       HT       0.417000       1.00800           0
     21383 TIP3     1345     TIP3     OH2      OT      -0.834000       15.9994           0
     21384 TIP3     1345     TIP3     H1       HT       0.417000       1.00800           0
     21385 TIP3     1345     TIP3     H2       HT       0.417000       1.00800           0
     21386 TIP3     1346     TIP3     OH2      OT      -0.834000       15.9994           0
     21387 TIP3     1346     TIP3     H1       HT       0.417000       1.00800           0
     21388 TIP3     1346     TIP3     H2       HT       0.417000       1.00800           0
     21389 TIP3     1347     TIP3     OH2      OT      -0.834000       15.9994           0
     21390 TIP3     1347     TIP3     H1       HT       0.417000       1.00800           0
     21391 TIP3     1347     TIP3     H2       HT       0.417000       1.00800           0
     21392 TIP3     1348     TIP3     OH2      OT      -0.834000       15.9994           0
     21393 TIP3     1348     TIP3     H1       HT       0.417000       1.00800           0
     21394 TIP3     1348     TIP3     H2       HT       0.417000       1.00800           0
     21395 TIP3     1349     TIP3     OH2      OT      -0.834000       15.9994           0
     21396 TIP3     1349     TIP3     H1       HT       0.417000       1.00800           0
     21397 TIP3     1349     TIP3     H2       HT       0.417000       1.00800           0
     21398 TIP3     1350     TIP3     OH2      OT      -0.834000       15.9994           0
     21399 TIP3     1350     TIP3     H1       HT       0.417000       1.00800           0
     21400 TIP3     1350     TIP3     H2       HT       0.417000       1.00800           0
     21401 TIP3     1351     TIP3     OH2      OT      -0.834000       15.9994           0
     21402 TIP3     1351     TIP3     H1       HT       0.417000       1.00800           0
     21403 TIP3     1351     TIP3     H2       HT       0.417000       1.00800           0
     21404 TIP3     1352     TIP3     OH2      OT      -0.834000       15.9994           0
     21405 TIP3     1352     TIP3     H1       HT       0.417000       1.00800           0
     21406 TIP3     1352     TIP3     H2       HT       0.417000       1.00800           0
     21407 TIP3     1353     TIP3     OH2      OT      -0.834000       15.9994           0
     21408 TIP3     1353     TIP3     H1       HT       0.417000       1.00800           0
     21409 TIP3     1353     TIP3     H2       HT       0.417000       1.00800           0
     21410 TIP3     1354     TIP3     OH2      OT      -0.834000       15.9994           0
     21411 TIP3     1354     TIP3     H1       HT       0.417000       1.00800           0
     21412 TIP3     1354     TIP3     H2       HT       0.417000       1.00800           0
     21413 TIP3     1355     TIP3     OH2      OT      -0.834000       15.9994           0
     21414 TIP3     1355     TIP3     H1       HT       0.417000       1.00800           0
     21415 TIP3     1355     TIP3     H2       HT       0.417000       1.00800           0
     21416 TIP3     1356     TIP3     OH2      OT      -0.834000       15.9994           0
     21417 TIP3     1356     TIP3     H1       HT       0.417000       1.00800           0
     21418 TIP3     1356     TIP3     H2       HT       0.417000       1.00800           0
     21419 TIP3     1357     TIP3     OH2      OT      -0.834000       15.9994           0
     21420 TIP3     1357     TIP3     H1       HT       0.417000       1.00800           0
     21421 TIP3     1357     TIP3     H2       HT       0.417000       1.00800           0
     21422 TIP3     1358     TIP3     OH2      OT      -0.834000       15.9994           0
     21423 TIP3     1358     TIP3     H1       HT       0.417000       1.00800           0
     21424 TIP3     1358     TIP3     H2       HT       0.417000       1.00800           0
     21425 TIP3     1359     TIP3     OH2      OT      -0.834000       15.9994           0
     21426 TIP3     1359     TIP3     H1       HT       0.417000       1.00800           0
     21427 TIP3     1359     TIP3     H2       HT       0.417000       1.00800           0
     21428 TIP3     1360     TIP3     OH2      OT      -0.834000       15.9994           0
     21429 TIP3     1360     TIP3     H1       HT       0.417000       1.00800           0
     21430 TIP3     1360     TIP3     H2       HT       0.417000       1.00800           0
     21431 TIP3     1361     TIP3     OH2      OT      -0.834000       15.9994           0
     21432 TIP3     1361     TIP3     H1       HT       0.417000       1.00800           0
     21433 TIP3     1361     TIP3     H2       HT       0.417000       1.00800           0
     21434 TIP3     1362     TIP3     OH2      OT      -0.834000       15.9994           0
     21435 TIP3     1362     TIP3     H1       HT       0.417000       1.00800           0
     21436 TIP3     1362     TIP3     H2       HT       0.417000       1.00800           0
     21437 TIP3     1363     TIP3     OH2      OT      -0.834000       15.9994           0
     21438 TIP3     1363     TIP3     H1       HT       0.417000       1.00800           0
     21439 TIP3     1363     TIP3     H2       HT       0.417000       1.00800           0
     21440 TIP3     1364     TIP3     OH2      OT      -0.834000       15.9994           0
     21441 TIP3     1364     TIP3     H1       HT       0.417000       1.00800           0
     21442 TIP3     1364     TIP3     H2       HT       0.417000       1.00800           0
     21443 TIP3     1365     TIP3     OH2      OT      -0.834000       15.9994           0
     21444 TIP3     1365     TIP3     H1       HT       0.417000       1.00800           0
     21445 TIP3     1365     TIP3     H2       HT       0.417000       1.00800           0
     21446 TIP3     1366     TIP3     OH2      OT      -0.834000       15.9994           0
     21447 TIP3     1366     TIP3     H1       HT       0.417000       1.00800           0
     21448 TIP3     1366     TIP3     H2       HT       0.417000       1.00800           0
     21449 TIP3     1367     TIP3     OH2      OT      -0.834000       15.9994           0
     21450 TIP3     1367     TIP3     H1       HT       0.417000       1.00800           0
     21451 TIP3     1367     TIP3     H2       HT       0.417000       1.00800           0
     21452 TIP3     1368     TIP3     OH2      OT      -0.834000       15.9994           0
     21453 TIP3     1368     TIP3     H1       HT       0.417000       1.00800           0
     21454 TIP3     1368     TIP3     H2       HT       0.417000       1.00800           0
     21455 TIP3     1369     TIP3     OH2      OT      -0.834000       15.9994           0
     21456 TIP3     1369     TIP3     H1       HT       0.417000       1.00800           0
     21457 TIP3     1369     TIP3     H2       HT       0.417000       1.00800           0
     21458 TIP3     1370     TIP3     OH2      OT      -0.834000       15.9994           0
     21459 TIP3     1370     TIP3     H1       HT       0.417000       1.00800           0
     21460 TIP3     1370     TIP3     H2       HT       0.417000       1.00800           0
     21461 TIP3     1371     TIP3     OH2      OT      -0.834000       15.9994           0
     21462 TIP3     1371     TIP3     H1       HT       0.417000       1.00800           0
     21463 TIP3     1371     TIP3     H2       HT       0.417000       1.00800           0
     21464 TIP3     1372     TIP3     OH2      OT      -0.834000       15.9994           0
     21465 TIP3     1372     TIP3     H1       HT       0.417000       1.00800           0
     21466 TIP3     1372     TIP3     H2       HT       0.417000       1.00800           0
     21467 TIP3     1373     TIP3     OH2      OT      -0.834000       15.9994           0
     21468 TIP3     1373     TIP3     H1       HT       0.417000       1.00800           0
     21469 TIP3     1373     TIP3     H2       HT       0.417000       1.00800           0
     21470 TIP3     1374     TIP3     OH2      OT      -0.834000       15.9994           0
     21471 TIP3     1374     TIP3     H1       HT       0.417000       1.00800           0
     21472 TIP3     1374     TIP3     H2       HT       0.417000       1.00800           0
     21473 TIP3     1375     TIP3     OH2      OT      -0.834000       15.9994           0
     21474 TIP3     1375     TIP3     H1       HT       0.417000       1.00800           0
     21475 TIP3     1375     TIP3     H2       HT       0.417000       1.00800           0
     21476 TIP3     1376     TIP3     OH2      OT      -0.834000       15.9994           0
     21477 TIP3     1376     TIP3     H1       HT       0.417000       1.00800           0
     21478 TIP3     1376     TIP3     H2       HT       0.417000       1.00800           0
     21479 TIP3     1377     TIP3     OH2      OT      -0.834000       15.9994           0
     21480 TIP3     1377     TIP3     H1       HT       0.417000       1.00800           0
     21481 TIP3     1377     TIP3     H2       HT       0.417000       1.00800           0
     21482 TIP3     1378     TIP3     OH2      OT      -0.834000       15.9994           0
     21483 TIP3     1378     TIP3     H1       HT       0.417000       1.00800           0
     21484 TIP3     1378     TIP3     H2       HT       0.417000       1.00800           0
     21485 TIP3     1379     TIP3     OH2      OT      -0.834000       15.9994           0
     21486 TIP3     1379     TIP3     H1       HT       0.417000       1.00800           0
     21487 TIP3     1379     TIP3     H2       HT       0.417000       1.00800           0
     21488 TIP3     1380     TIP3     OH2      OT      -0.834000       15.9994           0
     21489 TIP3     1380     TIP3     H1       HT       0.417000       1.00800           0
     21490 TIP3     1380     TIP3     H2       HT       0.417000       1.00800           0
     21491 TIP3     1381     TIP3     OH2      OT      -0.834000       15.9994           0
     21492 TIP3     1381     TIP3     H1       HT       0.417000       1.00800           0
     21493 TIP3     1381     TIP3     H2       HT       0.417000       1.00800           0
     21494 TIP3     1382     TIP3     OH2      OT      -0.834000       15.9994           0
     21495 TIP3     1382     TIP3     H1       HT       0.417000       1.00800           0
     21496 TIP3     1382     TIP3     H2       HT       0.417000       1.00800           0
     21497 TIP3     1383     TIP3     OH2      OT      -0.834000       15.9994           0
     21498 TIP3     1383     TIP3     H1       HT       0.417000       1.00800           0
     21499 TIP3     1383     TIP3     H2       HT       0.417000       1.00800           0
     21500 TIP3     1384     TIP3     OH2      OT      -0.834000       15.9994           0
     21501 TIP3     1384     TIP3     H1       HT       0.417000       1.00800           0
     21502 TIP3     1384     TIP3     H2       HT       0.417000       1.00800           0
     21503 TIP3     1385     TIP3     OH2      OT      -0.834000       15.9994           0
     21504 TIP3     1385     TIP3     H1       HT       0.417000       1.00800           0
     21505 TIP3     1385     TIP3     H2       HT       0.417000       1.00800           0
     21506 TIP3     1386     TIP3     OH2      OT      -0.834000       15.9994           0
     21507 TIP3     1386     TIP3     H1       HT       0.417000       1.00800           0
     21508 TIP3     1386     TIP3     H2       HT       0.417000       1.00800           0
     21509 TIP3     1387     TIP3     OH2      OT      -0.834000       15.9994           0
     21510 TIP3     1387     TIP3     H1       HT       0.417000       1.00800           0
     21511 TIP3     1387     TIP3     H2       HT       0.417000       1.00800           0
     21512 TIP3     1388     TIP3     OH2      OT      -0.834000       15.9994           0
     21513 TIP3     1388     TIP3     H1       HT       0.417000       1.00800           0
     21514 TIP3     1388     TIP3     H2       HT       0.417000       1.00800           0
     21515 TIP3     1389     TIP3     OH2      OT      -0.834000       15.9994           0
     21516 TIP3     1389     TIP3     H1       HT       0.417000       1.00800           0
     21517 TIP3     1389     TIP3     H2       HT       0.417000       1.00800           0
     21518 TIP3     1390     TIP3     OH2      OT      -0.834000       15.9994           0
     21519 TIP3     1390     TIP3     H1       HT       0.417000       1.00800           0
     21520 TIP3     1390     TIP3     H2       HT       0.417000       1.00800           0
     21521 TIP3     1391     TIP3     OH2      OT      -0.834000       15.9994           0
     21522 TIP3     1391     TIP3     H1       HT       0.417000       1.00800           0
     21523 TIP3     1391     TIP3     H2       HT       0.417000       1.00800           0
     21524 TIP3     1392     TIP3     OH2      OT      -0.834000       15.9994           0
     21525 TIP3     1392     TIP3     H1       HT       0.417000       1.00800           0
     21526 TIP3     1392     TIP3     H2       HT       0.417000       1.00800           0
     21527 TIP3     1393     TIP3     OH2      OT      -0.834000       15.9994           0
     21528 TIP3     1393     TIP3     H1       HT       0.417000       1.00800           0
     21529 TIP3     1393     TIP3     H2       HT       0.417000       1.00800           0
     21530 TIP3     1394     TIP3     OH2      OT      -0.834000       15.9994           0
     21531 TIP3     1394     TIP3     H1       HT       0.417000       1.00800           0
     21532 TIP3     1394     TIP3     H2       HT       0.417000       1.00800           0
     21533 TIP3     1395     TIP3     OH2      OT      -0.834000       15.9994           0
     21534 TIP3     1395     TIP3     H1       HT       0.417000       1.00800           0
     21535 TIP3     1395     TIP3     H2       HT       0.417000       1.00800           0
     21536 TIP3     1396     TIP3     OH2      OT      -0.834000       15.9994           0
     21537 TIP3     1396     TIP3     H1       HT       0.417000       1.00800           0
     21538 TIP3     1396     TIP3     H2       HT       0.417000       1.00800           0
     21539 TIP3     1397     TIP3     OH2      OT      -0.834000       15.9994           0
     21540 TIP3     1397     TIP3     H1       HT       0.417000       1.00800           0
     21541 TIP3     1397     TIP3     H2       HT       0.417000       1.00800           0
     21542 TIP3     1398     TIP3     OH2      OT      -0.834000       15.9994           0
     21543 TIP3     1398     TIP3     H1       HT       0.417000       1.00800           0
     21544 TIP3     1398     TIP3     H2       HT       0.417000       1.00800           0
     21545 TIP3     1399     TIP3     OH2      OT      -0.834000       15.9994           0
     21546 TIP3     1399     TIP3     H1       HT       0.417000       1.00800           0
     21547 TIP3     1399     TIP3     H2       HT       0.417000       1.00800           0
     21548 TIP3     1400     TIP3     OH2      OT      -0.834000       15.9994           0
     21549 TIP3     1400     TIP3     H1       HT       0.417000       1.00800           0
     21550 TIP3     1400     TIP3     H2       HT       0.417000       1.00800           0
     21551 TIP3     1401     TIP3     OH2      OT      -0.834000       15.9994           0
     21552 TIP3     1401     TIP3     H1       HT       0.417000       1.00800           0
     21553 TIP3     1401     TIP3     H2       HT       0.417000       1.00800           0
     21554 TIP3     1402     TIP3     OH2      OT      -0.834000       15.9994           0
     21555 TIP3     1402     TIP3     H1       HT       0.417000       1.00800           0
     21556 TIP3     1402     TIP3     H2       HT       0.417000       1.00800           0
     21557 TIP3     1403     TIP3     OH2      OT      -0.834000       15.9994           0
     21558 TIP3     1403     TIP3     H1       HT       0.417000       1.00800           0
     21559 TIP3     1403     TIP3     H2       HT       0.417000       1.00800           0
     21560 TIP3     1404     TIP3     OH2      OT      -0.834000       15.9994           0
     21561 TIP3     1404     TIP3     H1       HT       0.417000       1.00800           0
     21562 TIP3     1404     TIP3     H2       HT       0.417000       1.00800           0
     21563 TIP3     1405     TIP3     OH2      OT      -0.834000       15.9994           0
     21564 TIP3     1405     TIP3     H1       HT       0.417000       1.00800           0
     21565 TIP3     1405     TIP3     H2       HT       0.417000       1.00800           0
     21566 TIP3     1406     TIP3     OH2      OT      -0.834000       15.9994           0
     21567 TIP3     1406     TIP3     H1       HT       0.417000       1.00800           0
     21568 TIP3     1406     TIP3     H2       HT       0.417000       1.00800           0
     21569 TIP3     1407     TIP3     OH2      OT      -0.834000       15.9994           0
     21570 TIP3     1407     TIP3     H1       HT       0.417000       1.00800           0
     21571 TIP3     1407     TIP3     H2       HT       0.417000       1.00800           0
     21572 TIP3     1408     TIP3     OH2      OT      -0.834000       15.9994           0
     21573 TIP3     1408     TIP3     H1       HT       0.417000       1.00800           0
     21574 TIP3     1408     TIP3     H2       HT       0.417000       1.00800           0
     21575 TIP3     1409     TIP3     OH2      OT      -0.834000       15.9994           0
     21576 TIP3     1409     TIP3     H1       HT       0.417000       1.00800           0
     21577 TIP3     1409     TIP3     H2       HT       0.417000       1.00800           0
     21578 TIP3     1410     TIP3     OH2      OT      -0.834000       15.9994           0
     21579 TIP3     1410     TIP3     H1       HT       0.417000       1.00800           0
     21580 TIP3     1410     TIP3     H2       HT       0.417000       1.00800           0
     21581 TIP3     1411     TIP3     OH2      OT      -0.834000       15.9994           0
     21582 TIP3     1411     TIP3     H1       HT       0.417000       1.00800           0
     21583 TIP3     1411     TIP3     H2       HT       0.417000       1.00800           0
     21584 TIP3     1412     TIP3     OH2      OT      -0.834000       15.9994           0
     21585 TIP3     1412     TIP3     H1       HT       0.417000       1.00800           0
     21586 TIP3     1412     TIP3     H2       HT       0.417000       1.00800           0
     21587 TIP3     1413     TIP3     OH2      OT      -0.834000       15.9994           0
     21588 TIP3     1413     TIP3     H1       HT       0.417000       1.00800           0
     21589 TIP3     1413     TIP3     H2       HT       0.417000       1.00800           0
     21590 TIP3     1414     TIP3     OH2      OT      -0.834000       15.9994           0
     21591 TIP3     1414     TIP3     H1       HT       0.417000       1.00800           0
     21592 TIP3     1414     TIP3     H2       HT       0.417000       1.00800           0
     21593 TIP3     1415     TIP3     OH2      OT      -0.834000       15.9994           0
     21594 TIP3     1415     TIP3     H1       HT       0.417000       1.00800           0
     21595 TIP3     1415     TIP3     H2       HT       0.417000       1.00800           0
     21596 TIP3     1416     TIP3     OH2      OT      -0.834000       15.9994           0
     21597 TIP3     1416     TIP3     H1       HT       0.417000       1.00800           0
     21598 TIP3     1416     TIP3     H2       HT       0.417000       1.00800           0
     21599 TIP3     1417     TIP3     OH2      OT      -0.834000       15.9994           0
     21600 TIP3     1417     TIP3     H1       HT       0.417000       1.00800           0
     21601 TIP3     1417     TIP3     H2       HT       0.417000       1.00800           0
     21602 TIP3     1418     TIP3     OH2      OT      -0.834000       15.9994           0
     21603 TIP3     1418     TIP3     H1       HT       0.417000       1.00800           0
     21604 TIP3     1418     TIP3     H2       HT       0.417000       1.00800           0
     21605 TIP3     1419     TIP3     OH2      OT      -0.834000       15.9994           0
     21606 TIP3     1419     TIP3     H1       HT       0.417000       1.00800           0
     21607 TIP3     1419     TIP3     H2       HT       0.417000       1.00800           0
     21608 TIP3     1420     TIP3     OH2      OT      -0.834000       15.9994           0
     21609 TIP3     1420     TIP3     H1       HT       0.417000       1.00800           0
     21610 TIP3     1420     TIP3     H2       HT       0.417000       1.00800           0
     21611 TIP3     1421     TIP3     OH2      OT      -0.834000       15.9994           0
     21612 TIP3     1421     TIP3     H1       HT       0.417000       1.00800           0
     21613 TIP3     1421     TIP3     H2       HT       0.417000       1.00800           0
     21614 TIP3     1422     TIP3     OH2      OT      -0.834000       15.9994           0
     21615 TIP3     1422     TIP3     H1       HT       0.417000       1.00800           0
     21616 TIP3     1422     TIP3     H2       HT       0.417000       1.00800           0
     21617 TIP3     1423     TIP3     OH2      OT      -0.834000       15.9994           0
     21618 TIP3     1423     TIP3     H1       HT       0.417000       1.00800           0
     21619 TIP3     1423     TIP3     H2       HT       0.417000       1.00800           0
     21620 TIP3     1424     TIP3     OH2      OT      -0.834000       15.9994           0
     21621 TIP3     1424     TIP3     H1       HT       0.417000       1.00800           0
     21622 TIP3     1424     TIP3     H2       HT       0.417000       1.00800           0
     21623 TIP3     1425     TIP3     OH2      OT      -0.834000       15.9994           0
     21624 TIP3     1425     TIP3     H1       HT       0.417000       1.00800           0
     21625 TIP3     1425     TIP3     H2       HT       0.417000       1.00800           0
     21626 TIP3     1426     TIP3     OH2      OT      -0.834000       15.9994           0
     21627 TIP3     1426     TIP3     H1       HT       0.417000       1.00800           0
     21628 TIP3     1426     TIP3     H2       HT       0.417000       1.00800           0
     21629 TIP3     1427     TIP3     OH2      OT      -0.834000       15.9994           0
     21630 TIP3     1427     TIP3     H1       HT       0.417000       1.00800           0
     21631 TIP3     1427     TIP3     H2       HT       0.417000       1.00800           0
     21632 TIP3     1428     TIP3     OH2      OT      -0.834000       15.9994           0
     21633 TIP3     1428     TIP3     H1       HT       0.417000       1.00800           0
     21634 TIP3     1428     TIP3     H2       HT       0.417000       1.00800           0
     21635 TIP3     1429     TIP3     OH2      OT      -0.834000       15.9994           0
     21636 TIP3     1429     TIP3     H1       HT       0.417000       1.00800           0
     21637 TIP3     1429     TIP3     H2       HT       0.417000       1.00800           0
     21638 TIP3     1430     TIP3     OH2      OT      -0.834000       15.9994           0
     21639 TIP3     1430     TIP3     H1       HT       0.417000       1.00800           0
     21640 TIP3     1430     TIP3     H2       HT       0.417000       1.00800           0
     21641 TIP3     1431     TIP3     OH2      OT      -0.834000       15.9994           0
     21642 TIP3     1431     TIP3     H1       HT       0.417000       1.00800           0
     21643 TIP3     1431     TIP3     H2       HT       0.417000       1.00800           0
     21644 TIP3     1432     TIP3     OH2      OT      -0.834000       15.9994           0
     21645 TIP3     1432     TIP3     H1       HT       0.417000       1.00800           0
     21646 TIP3     1432     TIP3     H2       HT       0.417000       1.00800           0
     21647 TIP3     1433     TIP3     OH2      OT      -0.834000       15.9994           0
     21648 TIP3     1433     TIP3     H1       HT       0.417000       1.00800           0
     21649 TIP3     1433     TIP3     H2       HT       0.417000       1.00800           0
     21650 TIP3     1434     TIP3     OH2      OT      -0.834000       15.9994           0
     21651 TIP3     1434     TIP3     H1       HT       0.417000       1.00800           0
     21652 TIP3     1434     TIP3     H2       HT       0.417000       1.00800           0
     21653 TIP3     1435     TIP3     OH2      OT      -0.834000       15.9994           0
     21654 TIP3     1435     TIP3     H1       HT       0.417000       1.00800           0
     21655 TIP3     1435     TIP3     H2       HT       0.417000       1.00800           0
     21656 TIP3     1436     TIP3     OH2      OT      -0.834000       15.9994           0
     21657 TIP3     1436     TIP3     H1       HT       0.417000       1.00800           0
     21658 TIP3     1436     TIP3     H2       HT       0.417000       1.00800           0
     21659 TIP3     1437     TIP3     OH2      OT      -0.834000       15.9994           0
     21660 TIP3     1437     TIP3     H1       HT       0.417000       1.00800           0
     21661 TIP3     1437     TIP3     H2       HT       0.417000       1.00800           0
     21662 TIP3     1438     TIP3     OH2      OT      -0.834000       15.9994           0
     21663 TIP3     1438     TIP3     H1       HT       0.417000       1.00800           0
     21664 TIP3     1438     TIP3     H2       HT       0.417000       1.00800           0
     21665 TIP3     1439     TIP3     OH2      OT      -0.834000       15.9994           0
     21666 TIP3     1439     TIP3     H1       HT       0.417000       1.00800           0
     21667 TIP3     1439     TIP3     H2       HT       0.417000       1.00800           0
     21668 TIP3     1440     TIP3     OH2      OT      -0.834000       15.9994           0
     21669 TIP3     1440     TIP3     H1       HT       0.417000       1.00800           0
     21670 TIP3     1440     TIP3     H2       HT       0.417000       1.00800           0
     21671 TIP3     1441     TIP3     OH2      OT      -0.834000       15.9994           0
     21672 TIP3     1441     TIP3     H1       HT       0.417000       1.00800           0
     21673 TIP3     1441     TIP3     H2       HT       0.417000       1.00800           0
     21674 TIP3     1442     TIP3     OH2      OT      -0.834000       15.9994           0
     21675 TIP3     1442     TIP3     H1       HT       0.417000       1.00800           0
     21676 TIP3     1442     TIP3     H2       HT       0.417000       1.00800           0
     21677 TIP3     1443     TIP3     OH2      OT      -0.834000       15.9994           0
     21678 TIP3     1443     TIP3     H1       HT       0.417000       1.00800           0
     21679 TIP3     1443     TIP3     H2       HT       0.417000       1.00800           0
     21680 TIP3     1444     TIP3     OH2      OT      -0.834000       15.9994           0
     21681 TIP3     1444     TIP3     H1       HT       0.417000       1.00800           0
     21682 TIP3     1444     TIP3     H2       HT       0.417000       1.00800           0
     21683 TIP3     1445     TIP3     OH2      OT      -0.834000       15.9994           0
     21684 TIP3     1445     TIP3     H1       HT       0.417000       1.00800           0
     21685 TIP3     1445     TIP3     H2       HT       0.417000       1.00800           0
     21686 TIP3     1446     TIP3     OH2      OT      -0.834000       15.9994           0
     21687 TIP3     1446     TIP3     H1       HT       0.417000       1.00800           0
     21688 TIP3     1446     TIP3     H2       HT       0.417000       1.00800           0
     21689 TIP3     1447     TIP3     OH2      OT      -0.834000       15.9994           0
     21690 TIP3     1447     TIP3     H1       HT       0.417000       1.00800           0
     21691 TIP3     1447     TIP3     H2       HT       0.417000       1.00800           0
     21692 TIP3     1448     TIP3     OH2      OT      -0.834000       15.9994           0
     21693 TIP3     1448     TIP3     H1       HT       0.417000       1.00800           0
     21694 TIP3     1448     TIP3     H2       HT       0.417000       1.00800           0
     21695 TIP3     1449     TIP3     OH2      OT      -0.834000       15.9994           0
     21696 TIP3     1449     TIP3     H1       HT       0.417000       1.00800           0
     21697 TIP3     1449     TIP3     H2       HT       0.417000       1.00800           0
     21698 TIP3     1450     TIP3     OH2      OT      -0.834000       15.9994           0
     21699 TIP3     1450     TIP3     H1       HT       0.417000       1.00800           0
     21700 TIP3     1450     TIP3     H2       HT       0.417000       1.00800           0
     21701 TIP3     1451     TIP3     OH2      OT      -0.834000       15.9994           0
     21702 TIP3     1451     TIP3     H1       HT       0.417000       1.00800           0
     21703 TIP3     1451     TIP3     H2       HT       0.417000       1.00800           0
     21704 TIP3     1452     TIP3     OH2      OT      -0.834000       15.9994           0
     21705 TIP3     1452     TIP3     H1       HT       0.417000       1.00800           0
     21706 TIP3     1452     TIP3     H2       HT       0.417000       1.00800           0
     21707 TIP3     1453     TIP3     OH2      OT      -0.834000       15.9994           0
     21708 TIP3     1453     TIP3     H1       HT       0.417000       1.00800           0
     21709 TIP3     1453     TIP3     H2       HT       0.417000       1.00800           0
     21710 TIP3     1454     TIP3     OH2      OT      -0.834000       15.9994           0
     21711 TIP3     1454     TIP3     H1       HT       0.417000       1.00800           0
     21712 TIP3     1454     TIP3     H2       HT       0.417000       1.00800           0
     21713 TIP3     1455     TIP3     OH2      OT      -0.834000       15.9994           0
     21714 TIP3     1455     TIP3     H1       HT       0.417000       1.00800           0
     21715 TIP3     1455     TIP3     H2       HT       0.417000       1.00800           0
     21716 TIP3     1456     TIP3     OH2      OT      -0.834000       15.9994           0
     21717 TIP3     1456     TIP3     H1       HT       0.417000       1.00800           0
     21718 TIP3     1456     TIP3     H2       HT       0.417000       1.00800           0
     21719 TIP3     1457     TIP3     OH2      OT      -0.834000       15.9994           0
     21720 TIP3     1457     TIP3     H1       HT       0.417000       1.00800           0
     21721 TIP3     1457     TIP3     H2       HT       0.417000       1.00800           0
     21722 TIP3     1458     TIP3     OH2      OT      -0.834000       15.9994           0
     21723 TIP3     1458     TIP3     H1       HT       0.417000       1.00800           0
     21724 TIP3     1458     TIP3     H2       HT       0.417000       1.00800           0
     21725 TIP3     1459     TIP3     OH2      OT      -0.834000       15.9994           0
     21726 TIP3     1459     TIP3     H1       HT       0.417000       1.00800           0
     21727 TIP3     1459     TIP3     H2       HT       0.417000       1.00800           0
     21728 TIP3     1460     TIP3     OH2      OT      -0.834000       15.9994           0
     21729 TIP3     1460     TIP3     H1       HT       0.417000       1.00800           0
     21730 TIP3     1460     TIP3     H2       HT       0.417000       1.00800           0
     21731 TIP3     1461     TIP3     OH2      OT      -0.834000       15.9994           0
     21732 TIP3     1461     TIP3     H1       HT       0.417000       1.00800           0
     21733 TIP3     1461     TIP3     H2       HT       0.417000       1.00800           0
     21734 TIP3     1462     TIP3     OH2      OT      -0.834000       15.9994           0
     21735 TIP3     1462     TIP3     H1       HT       0.417000       1.00800           0
     21736 TIP3     1462     TIP3     H2       HT       0.417000       1.00800           0
     21737 TIP3     1463     TIP3     OH2      OT      -0.834000       15.9994           0
     21738 TIP3     1463     TIP3     H1       HT       0.417000       1.00800           0
     21739 TIP3     1463     TIP3     H2       HT       0.417000       1.00800           0
     21740 TIP3     1464     TIP3     OH2      OT      -0.834000       15.9994           0
     21741 TIP3     1464     TIP3     H1       HT       0.417000       1.00800           0
     21742 TIP3     1464     TIP3     H2       HT       0.417000       1.00800           0
     21743 TIP3     1465     TIP3     OH2      OT      -0.834000       15.9994           0
     21744 TIP3     1465     TIP3     H1       HT       0.417000       1.00800           0
     21745 TIP3     1465     TIP3     H2       HT       0.417000       1.00800           0
     21746 TIP3     1466     TIP3     OH2      OT      -0.834000       15.9994           0
     21747 TIP3     1466     TIP3     H1       HT       0.417000       1.00800           0
     21748 TIP3     1466     TIP3     H2       HT       0.417000       1.00800           0
     21749 TIP3     1467     TIP3     OH2      OT      -0.834000       15.9994           0
     21750 TIP3     1467     TIP3     H1       HT       0.417000       1.00800           0
     21751 TIP3     1467     TIP3     H2       HT       0.417000       1.00800           0
     21752 TIP3     1468     TIP3     OH2      OT      -0.834000       15.9994           0
     21753 TIP3     1468     TIP3     H1       HT       0.417000       1.00800           0
     21754 TIP3     1468     TIP3     H2       HT       0.417000       1.00800           0
     21755 TIP3     1469     TIP3     OH2      OT      -0.834000       15.9994           0
     21756 TIP3     1469     TIP3     H1       HT       0.417000       1.00800           0
     21757 TIP3     1469     TIP3     H2       HT       0.417000       1.00800           0
     21758 TIP3     1470     TIP3     OH2      OT      -0.834000       15.9994           0
     21759 TIP3     1470     TIP3     H1       HT       0.417000       1.00800           0
     21760 TIP3     1470     TIP3     H2       HT       0.417000       1.00800           0
     21761 TIP3     1471     TIP3     OH2      OT      -0.834000       15.9994           0
     21762 TIP3     1471     TIP3     H1       HT       0.417000       1.00800           0
     21763 TIP3     1471     TIP3     H2       HT       0.417000       1.00800           0
     21764 TIP3     1472     TIP3     OH2      OT      -0.834000       15.9994           0
     21765 TIP3     1472     TIP3     H1       HT       0.417000       1.00800           0
     21766 TIP3     1472     TIP3     H2       HT       0.417000       1.00800           0
     21767 TIP3     1473     TIP3     OH2      OT      -0.834000       15.9994           0
     21768 TIP3     1473     TIP3     H1       HT       0.417000       1.00800           0
     21769 TIP3     1473     TIP3     H2       HT       0.417000       1.00800           0
     21770 TIP3     1474     TIP3     OH2      OT      -0.834000       15.9994           0
     21771 TIP3     1474     TIP3     H1       HT       0.417000       1.00800           0
     21772 TIP3     1474     TIP3     H2       HT       0.417000       1.00800           0
     21773 TIP3     1475     TIP3     OH2      OT      -0.834000       15.9994           0
     21774 TIP3     1475     TIP3     H1       HT       0.417000       1.00800           0
     21775 TIP3     1475     TIP3     H2       HT       0.417000       1.00800           0
     21776 TIP3     1476     TIP3     OH2      OT      -0.834000       15.9994           0
     21777 TIP3     1476     TIP3     H1       HT       0.417000       1.00800           0
     21778 TIP3     1476     TIP3     H2       HT       0.417000       1.00800           0
     21779 TIP3     1477     TIP3     OH2      OT      -0.834000       15.9994           0
     21780 TIP3     1477     TIP3     H1       HT       0.417000       1.00800           0
     21781 TIP3     1477     TIP3     H2       HT       0.417000       1.00800           0
     21782 TIP3     1478     TIP3     OH2      OT      -0.834000       15.9994           0
     21783 TIP3     1478     TIP3     H1       HT       0.417000       1.00800           0
     21784 TIP3     1478     TIP3     H2       HT       0.417000       1.00800           0
     21785 TIP3     1479     TIP3     OH2      OT      -0.834000       15.9994           0
     21786 TIP3     1479     TIP3     H1       HT       0.417000       1.00800           0
     21787 TIP3     1479     TIP3     H2       HT       0.417000       1.00800           0
     21788 TIP3     1480     TIP3     OH2      OT      -0.834000       15.9994           0
     21789 TIP3     1480     TIP3     H1       HT       0.417000       1.00800           0
     21790 TIP3     1480     TIP3     H2       HT       0.417000       1.00800           0
     21791 TIP3     1481     TIP3     OH2      OT      -0.834000       15.9994           0
     21792 TIP3     1481     TIP3     H1       HT       0.417000       1.00800           0
     21793 TIP3     1481     TIP3     H2       HT       0.417000       1.00800           0
     21794 TIP3     1482     TIP3     OH2      OT      -0.834000       15.9994           0
     21795 TIP3     1482     TIP3     H1       HT       0.417000       1.00800           0
     21796 TIP3     1482     TIP3     H2       HT       0.417000       1.00800           0
     21797 TIP3     1483     TIP3     OH2      OT      -0.834000       15.9994           0
     21798 TIP3     1483     TIP3     H1       HT       0.417000       1.00800           0
     21799 TIP3     1483     TIP3     H2       HT       0.417000       1.00800           0
     21800 TIP3     1484     TIP3     OH2      OT      -0.834000       15.9994           0
     21801 TIP3     1484     TIP3     H1       HT       0.417000       1.00800           0
     21802 TIP3     1484     TIP3     H2       HT       0.417000       1.00800           0
     21803 TIP3     1485     TIP3     OH2      OT      -0.834000       15.9994           0
     21804 TIP3     1485     TIP3     H1       HT       0.417000       1.00800           0
     21805 TIP3     1485     TIP3     H2       HT       0.417000       1.00800           0
     21806 TIP3     1486     TIP3     OH2      OT      -0.834000       15.9994           0
     21807 TIP3     1486     TIP3     H1       HT       0.417000       1.00800           0
     21808 TIP3     1486     TIP3     H2       HT       0.417000       1.00800           0
     21809 TIP3     1487     TIP3     OH2      OT      -0.834000       15.9994           0
     21810 TIP3     1487     TIP3     H1       HT       0.417000       1.00800           0
     21811 TIP3     1487     TIP3     H2       HT       0.417000       1.00800           0
     21812 TIP3     1488     TIP3     OH2      OT      -0.834000       15.9994           0
     21813 TIP3     1488     TIP3     H1       HT       0.417000       1.00800           0
     21814 TIP3     1488     TIP3     H2       HT       0.417000       1.00800           0
     21815 TIP3     1489     TIP3     OH2      OT      -0.834000       15.9994           0
     21816 TIP3     1489     TIP3     H1       HT       0.417000       1.00800           0
     21817 TIP3     1489     TIP3     H2       HT       0.417000       1.00800           0
     21818 TIP3     1490     TIP3     OH2      OT      -0.834000       15.9994           0
     21819 TIP3     1490     TIP3     H1       HT       0.417000       1.00800           0
     21820 TIP3     1490     TIP3     H2       HT       0.417000       1.00800           0
     21821 TIP3     1491     TIP3     OH2      OT      -0.834000       15.9994           0
     21822 TIP3     1491     TIP3     H1       HT       0.417000       1.00800           0
     21823 TIP3     1491     TIP3     H2       HT       0.417000       1.00800           0
     21824 TIP3     1492     TIP3     OH2      OT      -0.834000       15.9994           0
     21825 TIP3     1492     TIP3     H1       HT       0.417000       1.00800           0
     21826 TIP3     1492     TIP3     H2       HT       0.417000       1.00800           0
     21827 TIP3     1493     TIP3     OH2      OT      -0.834000       15.9994           0
     21828 TIP3     1493     TIP3     H1       HT       0.417000       1.00800           0
     21829 TIP3     1493     TIP3     H2       HT       0.417000       1.00800           0
     21830 TIP3     1494     TIP3     OH2      OT      -0.834000       15.9994           0
     21831 TIP3     1494     TIP3     H1       HT       0.417000       1.00800           0
     21832 TIP3     1494     TIP3     H2       HT       0.417000       1.00800           0
     21833 TIP3     1495     TIP3     OH2      OT      -0.834000       15.9994           0
     21834 TIP3     1495     TIP3     H1       HT       0.417000       1.00800           0
     21835 TIP3     1495     TIP3     H2       HT       0.417000       1.00800           0
     21836 TIP3     1496     TIP3     OH2      OT      -0.834000       15.9994           0
     21837 TIP3     1496     TIP3     H1       HT       0.417000       1.00800           0
     21838 TIP3     1496     TIP3     H2       HT       0.417000       1.00800           0
     21839 TIP3     1497     TIP3     OH2      OT      -0.834000       15.9994           0
     21840 TIP3     1497     TIP3     H1       HT       0.417000       1.00800           0
     21841 TIP3     1497     TIP3     H2       HT       0.417000       1.00800           0
     21842 TIP3     1498     TIP3     OH2      OT      -0.834000       15.9994           0
     21843 TIP3     1498     TIP3     H1       HT       0.417000       1.00800           0
     21844 TIP3     1498     TIP3     H2       HT       0.417000       1.00800           0
     21845 TIP3     1499     TIP3     OH2      OT      -0.834000       15.9994           0
     21846 TIP3     1499     TIP3     H1       HT       0.417000       1.00800           0
     21847 TIP3     1499     TIP3     H2       HT       0.417000       1.00800           0
     21848 TIP3     1500     TIP3     OH2      OT      -0.834000       15.9994           0
     21849 TIP3     1500     TIP3     H1       HT       0.417000       1.00800           0
     21850 TIP3     1500     TIP3     H2       HT       0.417000       1.00800           0
     21851 TIP3     1501     TIP3     OH2      OT      -0.834000       15.9994           0
     21852 TIP3     1501     TIP3     H1       HT       0.417000       1.00800           0
     21853 TIP3     1501     TIP3     H2       HT       0.417000       1.00800           0
     21854 TIP3     1502     TIP3     OH2      OT      -0.834000       15.9994           0
     21855 TIP3     1502     TIP3     H1       HT       0.417000       1.00800           0
     21856 TIP3     1502     TIP3     H2       HT       0.417000       1.00800           0
     21857 TIP3     1503     TIP3     OH2      OT      -0.834000       15.9994           0
     21858 TIP3     1503     TIP3     H1       HT       0.417000       1.00800           0
     21859 TIP3     1503     TIP3     H2       HT       0.417000       1.00800           0
     21860 TIP3     1504     TIP3     OH2      OT      -0.834000       15.9994           0
     21861 TIP3     1504     TIP3     H1       HT       0.417000       1.00800           0
     21862 TIP3     1504     TIP3     H2       HT       0.417000       1.00800           0
     21863 TIP3     1505     TIP3     OH2      OT      -0.834000       15.9994           0
     21864 TIP3     1505     TIP3     H1       HT       0.417000       1.00800           0
     21865 TIP3     1505     TIP3     H2       HT       0.417000       1.00800           0
     21866 TIP3     1506     TIP3     OH2      OT      -0.834000       15.9994           0
     21867 TIP3     1506     TIP3     H1       HT       0.417000       1.00800           0
     21868 TIP3     1506     TIP3     H2       HT       0.417000       1.00800           0
     21869 TIP3     1507     TIP3     OH2      OT      -0.834000       15.9994           0
     21870 TIP3     1507     TIP3     H1       HT       0.417000       1.00800           0
     21871 TIP3     1507     TIP3     H2       HT       0.417000       1.00800           0
     21872 TIP3     1508     TIP3     OH2      OT      -0.834000       15.9994           0
     21873 TIP3     1508     TIP3     H1       HT       0.417000       1.00800           0
     21874 TIP3     1508     TIP3     H2       HT       0.417000       1.00800           0
     21875 TIP3     1509     TIP3     OH2      OT      -0.834000       15.9994           0
     21876 TIP3     1509     TIP3     H1       HT       0.417000       1.00800           0
     21877 TIP3     1509     TIP3     H2       HT       0.417000       1.00800           0
     21878 TIP3     1510     TIP3     OH2      OT      -0.834000       15.9994           0
     21879 TIP3     1510     TIP3     H1       HT       0.417000       1.00800           0
     21880 TIP3     1510     TIP3     H2       HT       0.417000       1.00800           0
     21881 TIP3     1511     TIP3     OH2      OT      -0.834000       15.9994           0
     21882 TIP3     1511     TIP3     H1       HT       0.417000       1.00800           0
     21883 TIP3     1511     TIP3     H2       HT       0.417000       1.00800           0
     21884 TIP3     1512     TIP3     OH2      OT      -0.834000       15.9994           0
     21885 TIP3     1512     TIP3     H1       HT       0.417000       1.00800           0
     21886 TIP3     1512     TIP3     H2       HT       0.417000       1.00800           0
     21887 TIP3     1513     TIP3     OH2      OT      -0.834000       15.9994           0
     21888 TIP3     1513     TIP3     H1       HT       0.417000       1.00800           0
     21889 TIP3     1513     TIP3     H2       HT       0.417000       1.00800           0
     21890 TIP3     1514     TIP3     OH2      OT      -0.834000       15.9994           0
     21891 TIP3     1514     TIP3     H1       HT       0.417000       1.00800           0
     21892 TIP3     1514     TIP3     H2       HT       0.417000       1.00800           0
     21893 TIP3     1515     TIP3     OH2      OT      -0.834000       15.9994           0
     21894 TIP3     1515     TIP3     H1       HT       0.417000       1.00800           0
     21895 TIP3     1515     TIP3     H2       HT       0.417000       1.00800           0
     21896 TIP3     1516     TIP3     OH2      OT      -0.834000       15.9994           0
     21897 TIP3     1516     TIP3     H1       HT       0.417000       1.00800           0
     21898 TIP3     1516     TIP3     H2       HT       0.417000       1.00800           0
     21899 TIP3     1517     TIP3     OH2      OT      -0.834000       15.9994           0
     21900 TIP3     1517     TIP3     H1       HT       0.417000       1.00800           0
     21901 TIP3     1517     TIP3     H2       HT       0.417000       1.00800           0
     21902 TIP3     1518     TIP3     OH2      OT      -0.834000       15.9994           0
     21903 TIP3     1518     TIP3     H1       HT       0.417000       1.00800           0
     21904 TIP3     1518     TIP3     H2       HT       0.417000       1.00800           0
     21905 TIP3     1519     TIP3     OH2      OT      -0.834000       15.9994           0
     21906 TIP3     1519     TIP3     H1       HT       0.417000       1.00800           0
     21907 TIP3     1519     TIP3     H2       HT       0.417000       1.00800           0
     21908 TIP3     1520     TIP3     OH2      OT      -0.834000       15.9994           0
     21909 TIP3     1520     TIP3     H1       HT       0.417000       1.00800           0
     21910 TIP3     1520     TIP3     H2       HT       0.417000       1.00800           0
     21911 TIP3     1521     TIP3     OH2      OT      -0.834000       15.9994           0
     21912 TIP3     1521     TIP3     H1       HT       0.417000       1.00800           0
     21913 TIP3     1521     TIP3     H2       HT       0.417000       1.00800           0
     21914 TIP3     1522     TIP3     OH2      OT      -0.834000       15.9994           0
     21915 TIP3     1522     TIP3     H1       HT       0.417000       1.00800           0
     21916 TIP3     1522     TIP3     H2       HT       0.417000       1.00800           0
     21917 TIP3     1523     TIP3     OH2      OT      -0.834000       15.9994           0
     21918 TIP3     1523     TIP3     H1       HT       0.417000       1.00800           0
     21919 TIP3     1523     TIP3     H2       HT       0.417000       1.00800           0
     21920 TIP3     1524     TIP3     OH2      OT      -0.834000       15.9994           0
     21921 TIP3     1524     TIP3     H1       HT       0.417000       1.00800           0
     21922 TIP3     1524     TIP3     H2       HT       0.417000       1.00800           0
     21923 TIP3     1525     TIP3     OH2      OT      -0.834000       15.9994           0
     21924 TIP3     1525     TIP3     H1       HT       0.417000       1.00800           0
     21925 TIP3     1525     TIP3     H2       HT       0.417000       1.00800           0
     21926 TIP3     1526     TIP3     OH2      OT      -0.834000       15.9994           0
     21927 TIP3     1526     TIP3     H1       HT       0.417000       1.00800           0
     21928 TIP3     1526     TIP3     H2       HT       0.417000       1.00800           0
     21929 TIP3     1527     TIP3     OH2      OT      -0.834000       15.9994           0
     21930 TIP3     1527     TIP3     H1       HT       0.417000       1.00800           0
     21931 TIP3     1527     TIP3     H2       HT       0.417000       1.00800           0
     21932 TIP3     1528     TIP3     OH2      OT      -0.834000       15.9994           0
     21933 TIP3     1528     TIP3     H1       HT       0.417000       1.00800           0
     21934 TIP3     1528     TIP3     H2       HT       0.417000       1.00800           0
     21935 TIP3     1529     TIP3     OH2      OT      -0.834000       15.9994           0
     21936 TIP3     1529     TIP3     H1       HT       0.417000       1.00800           0
     21937 TIP3     1529     TIP3     H2       HT       0.417000       1.00800           0
     21938 TIP3     1530     TIP3     OH2      OT      -0.834000       15.9994           0
     21939 TIP3     1530     TIP3     H1       HT       0.417000       1.00800           0
     21940 TIP3     1530     TIP3     H2       HT       0.417000       1.00800           0
     21941 TIP3     1531     TIP3     OH2      OT      -0.834000       15.9994           0
     21942 TIP3     1531     TIP3     H1       HT       0.417000       1.00800           0
     21943 TIP3     1531     TIP3     H2       HT       0.417000       1.00800           0
     21944 TIP3     1532     TIP3     OH2      OT      -0.834000       15.9994           0
     21945 TIP3     1532     TIP3     H1       HT       0.417000       1.00800           0
     21946 TIP3     1532     TIP3     H2       HT       0.417000       1.00800           0
     21947 TIP3     1533     TIP3     OH2      OT      -0.834000       15.9994           0
     21948 TIP3     1533     TIP3     H1       HT       0.417000       1.00800           0
     21949 TIP3     1533     TIP3     H2       HT       0.417000       1.00800           0
     21950 TIP3     1534     TIP3     OH2      OT      -0.834000       15.9994           0
     21951 TIP3     1534     TIP3     H1       HT       0.417000       1.00800           0
     21952 TIP3     1534     TIP3     H2       HT       0.417000       1.00800           0
     21953 TIP3     1535     TIP3     OH2      OT      -0.834000       15.9994           0
     21954 TIP3     1535     TIP3     H1       HT       0.417000       1.00800           0
     21955 TIP3     1535     TIP3     H2       HT       0.417000       1.00800           0
     21956 TIP3     1536     TIP3     OH2      OT      -0.834000       15.9994           0
     21957 TIP3     1536     TIP3     H1       HT       0.417000       1.00800           0
     21958 TIP3     1536     TIP3     H2       HT       0.417000       1.00800           0
     21959 TIP3     1537     TIP3     OH2      OT      -0.834000       15.9994           0
     21960 TIP3     1537     TIP3     H1       HT       0.417000       1.00800           0
     21961 TIP3     1537     TIP3     H2       HT       0.417000       1.00800           0
     21962 TIP3     1538     TIP3     OH2      OT      -0.834000       15.9994           0
     21963 TIP3     1538     TIP3     H1       HT       0.417000       1.00800           0
     21964 TIP3     1538     TIP3     H2       HT       0.417000       1.00800           0
     21965 TIP3     1539     TIP3     OH2      OT      -0.834000       15.9994           0
     21966 TIP3     1539     TIP3     H1       HT       0.417000       1.00800           0
     21967 TIP3     1539     TIP3     H2       HT       0.417000       1.00800           0
     21968 TIP3     1540     TIP3     OH2      OT      -0.834000       15.9994           0
     21969 TIP3     1540     TIP3     H1       HT       0.417000       1.00800           0
     21970 TIP3     1540     TIP3     H2       HT       0.417000       1.00800           0
     21971 TIP3     1541     TIP3     OH2      OT      -0.834000       15.9994           0
     21972 TIP3     1541     TIP3     H1       HT       0.417000       1.00800           0
     21973 TIP3     1541     TIP3     H2       HT       0.417000       1.00800           0
     21974 TIP3     1542     TIP3     OH2      OT      -0.834000       15.9994           0
     21975 TIP3     1542     TIP3     H1       HT       0.417000       1.00800           0
     21976 TIP3     1542     TIP3     H2       HT       0.417000       1.00800           0
     21977 TIP3     1543     TIP3     OH2      OT      -0.834000       15.9994           0
     21978 TIP3     1543     TIP3     H1       HT       0.417000       1.00800           0
     21979 TIP3     1543     TIP3     H2       HT       0.417000       1.00800           0
     21980 TIP3     1544     TIP3     OH2      OT      -0.834000       15.9994           0
     21981 TIP3     1544     TIP3     H1       HT       0.417000       1.00800           0
     21982 TIP3     1544     TIP3     H2       HT       0.417000       1.00800           0
     21983 TIP3     1545     TIP3     OH2      OT      -0.834000       15.9994           0
     21984 TIP3     1545     TIP3     H1       HT       0.417000       1.00800           0
     21985 TIP3     1545     TIP3     H2       HT       0.417000       1.00800           0
     21986 TIP3     1546     TIP3     OH2      OT      -0.834000       15.9994           0
     21987 TIP3     1546     TIP3     H1       HT       0.417000       1.00800           0
     21988 TIP3     1546     TIP3     H2       HT       0.417000       1.00800           0
     21989 TIP3     1547     TIP3     OH2      OT      -0.834000       15.9994           0
     21990 TIP3     1547     TIP3     H1       HT       0.417000       1.00800           0
     21991 TIP3     1547     TIP3     H2       HT       0.417000       1.00800           0
     21992 TIP3     1548     TIP3     OH2      OT      -0.834000       15.9994           0
     21993 TIP3     1548     TIP3     H1       HT       0.417000       1.00800           0
     21994 TIP3     1548     TIP3     H2       HT       0.417000       1.00800           0
     21995 TIP3     1549     TIP3     OH2      OT      -0.834000       15.9994           0
     21996 TIP3     1549     TIP3     H1       HT       0.417000       1.00800           0
     21997 TIP3     1549     TIP3     H2       HT       0.417000       1.00800           0
     21998 TIP3     1550     TIP3     OH2      OT      -0.834000       15.9994           0
     21999 TIP3     1550     TIP3     H1       HT       0.417000       1.00800           0
     22000 TIP3     1550     TIP3     H2       HT       0.417000       1.00800           0
     22001 TIP3     1551     TIP3     OH2      OT      -0.834000       15.9994           0
     22002 TIP3     1551     TIP3     H1       HT       0.417000       1.00800           0
     22003 TIP3     1551     TIP3     H2       HT       0.417000       1.00800           0
     22004 TIP3     1552     TIP3     OH2      OT      -0.834000       15.9994           0
     22005 TIP3     1552     TIP3     H1       HT       0.417000       1.00800           0
     22006 TIP3     1552     TIP3     H2       HT       0.417000       1.00800           0
     22007 TIP3     1553     TIP3     OH2      OT      -0.834000       15.9994           0
     22008 TIP3     1553     TIP3     H1       HT       0.417000       1.00800           0
     22009 TIP3     1553     TIP3     H2       HT       0.417000       1.00800           0
     22010 TIP3     1554     TIP3     OH2      OT      -0.834000       15.9994           0
     22011 TIP3     1554     TIP3     H1       HT       0.417000       1.00800           0
     22012 TIP3     1554     TIP3     H2       HT       0.417000       1.00800           0
     22013 TIP3     1555     TIP3     OH2      OT      -0.834000       15.9994           0
     22014 TIP3     1555     TIP3     H1       HT       0.417000       1.00800           0
     22015 TIP3     1555     TIP3     H2       HT       0.417000       1.00800           0
     22016 TIP3     1556     TIP3     OH2      OT      -0.834000       15.9994           0
     22017 TIP3     1556     TIP3     H1       HT       0.417000       1.00800           0
     22018 TIP3     1556     TIP3     H2       HT       0.417000       1.00800           0
     22019 TIP3     1557     TIP3     OH2      OT      -0.834000       15.9994           0
     22020 TIP3     1557     TIP3     H1       HT       0.417000       1.00800           0
     22021 TIP3     1557     TIP3     H2       HT       0.417000       1.00800           0
     22022 TIP3     1558     TIP3     OH2      OT      -0.834000       15.9994           0
     22023 TIP3     1558     TIP3     H1       HT       0.417000       1.00800           0
     22024 TIP3     1558     TIP3     H2       HT       0.417000       1.00800           0
     22025 TIP3     1559     TIP3     OH2      OT      -0.834000       15.9994           0
     22026 TIP3     1559     TIP3     H1       HT       0.417000       1.00800           0
     22027 TIP3     1559     TIP3     H2       HT       0.417000       1.00800           0
     22028 TIP3     1560     TIP3     OH2      OT      -0.834000       15.9994           0
     22029 TIP3     1560     TIP3     H1       HT       0.417000       1.00800           0
     22030 TIP3     1560     TIP3     H2       HT       0.417000       1.00800           0
     22031 TIP3     1561     TIP3     OH2      OT      -0.834000       15.9994           0
     22032 TIP3     1561     TIP3     H1       HT       0.417000       1.00800           0
     22033 TIP3     1561     TIP3     H2       HT       0.417000       1.00800           0
     22034 TIP3     1562     TIP3     OH2      OT      -0.834000       15.9994           0
     22035 TIP3     1562     TIP3     H1       HT       0.417000       1.00800           0
     22036 TIP3     1562     TIP3     H2       HT       0.417000       1.00800           0
     22037 TIP3     1563     TIP3     OH2      OT      -0.834000       15.9994           0
     22038 TIP3     1563     TIP3     H1       HT       0.417000       1.00800           0
     22039 TIP3     1563     TIP3     H2       HT       0.417000       1.00800           0
     22040 TIP3     1564     TIP3     OH2      OT      -0.834000       15.9994           0
     22041 TIP3     1564     TIP3     H1       HT       0.417000       1.00800           0
     22042 TIP3     1564     TIP3     H2       HT       0.417000       1.00800           0
     22043 TIP3     1565     TIP3     OH2      OT      -0.834000       15.9994           0
     22044 TIP3     1565     TIP3     H1       HT       0.417000       1.00800           0
     22045 TIP3     1565     TIP3     H2       HT       0.417000       1.00800           0
     22046 TIP3     1566     TIP3     OH2      OT      -0.834000       15.9994           0
     22047 TIP3     1566     TIP3     H1       HT       0.417000       1.00800           0
     22048 TIP3     1566     TIP3     H2       HT       0.417000       1.00800           0
     22049 TIP3     1567     TIP3     OH2      OT      -0.834000       15.9994           0
     22050 TIP3     1567     TIP3     H1       HT       0.417000       1.00800           0
     22051 TIP3     1567     TIP3     H2       HT       0.417000       1.00800           0
     22052 TIP3     1568     TIP3     OH2      OT      -0.834000       15.9994           0
     22053 TIP3     1568     TIP3     H1       HT       0.417000       1.00800           0
     22054 TIP3     1568     TIP3     H2       HT       0.417000       1.00800           0
     22055 TIP3     1569     TIP3     OH2      OT      -0.834000       15.9994           0
     22056 TIP3     1569     TIP3     H1       HT       0.417000       1.00800           0
     22057 TIP3     1569     TIP3     H2       HT       0.417000       1.00800           0
     22058 TIP3     1570     TIP3     OH2      OT      -0.834000       15.9994           0
     22059 TIP3     1570     TIP3     H1       HT       0.417000       1.00800           0
     22060 TIP3     1570     TIP3     H2       HT       0.417000       1.00800           0
     22061 TIP3     1571     TIP3     OH2      OT      -0.834000       15.9994           0
     22062 TIP3     1571     TIP3     H1       HT       0.417000       1.00800           0
     22063 TIP3     1571     TIP3     H2       HT       0.417000       1.00800           0
     22064 TIP3     1572     TIP3     OH2      OT      -0.834000       15.9994           0
     22065 TIP3     1572     TIP3     H1       HT       0.417000       1.00800           0
     22066 TIP3     1572     TIP3     H2       HT       0.417000       1.00800           0
     22067 TIP3     1573     TIP3     OH2      OT      -0.834000       15.9994           0
     22068 TIP3     1573     TIP3     H1       HT       0.417000       1.00800           0
     22069 TIP3     1573     TIP3     H2       HT       0.417000       1.00800           0
     22070 TIP3     1574     TIP3     OH2      OT      -0.834000       15.9994           0
     22071 TIP3     1574     TIP3     H1       HT       0.417000       1.00800           0
     22072 TIP3     1574     TIP3     H2       HT       0.417000       1.00800           0
     22073 TIP3     1575     TIP3     OH2      OT      -0.834000       15.9994           0
     22074 TIP3     1575     TIP3     H1       HT       0.417000       1.00800           0
     22075 TIP3     1575     TIP3     H2       HT       0.417000       1.00800           0
     22076 TIP3     1576     TIP3     OH2      OT      -0.834000       15.9994           0
     22077 TIP3     1576     TIP3     H1       HT       0.417000       1.00800           0
     22078 TIP3     1576     TIP3     H2       HT       0.417000       1.00800           0
     22079 TIP3     1577     TIP3     OH2      OT      -0.834000       15.9994           0
     22080 TIP3     1577     TIP3     H1       HT       0.417000       1.00800           0
     22081 TIP3     1577     TIP3     H2       HT       0.417000       1.00800           0
     22082 TIP3     1578     TIP3     OH2      OT      -0.834000       15.9994           0
     22083 TIP3     1578     TIP3     H1       HT       0.417000       1.00800           0
     22084 TIP3     1578     TIP3     H2       HT       0.417000       1.00800           0
     22085 TIP3     1579     TIP3     OH2      OT      -0.834000       15.9994           0
     22086 TIP3     1579     TIP3     H1       HT       0.417000       1.00800           0
     22087 TIP3     1579     TIP3     H2       HT       0.417000       1.00800           0
     22088 TIP3     1580     TIP3     OH2      OT      -0.834000       15.9994           0
     22089 TIP3     1580     TIP3     H1       HT       0.417000       1.00800           0
     22090 TIP3     1580     TIP3     H2       HT       0.417000       1.00800           0
     22091 TIP3     1581     TIP3     OH2      OT      -0.834000       15.9994           0
     22092 TIP3     1581     TIP3     H1       HT       0.417000       1.00800           0
     22093 TIP3     1581     TIP3     H2       HT       0.417000       1.00800           0
     22094 TIP3     1582     TIP3     OH2      OT      -0.834000       15.9994           0
     22095 TIP3     1582     TIP3     H1       HT       0.417000       1.00800           0
     22096 TIP3     1582     TIP3     H2       HT       0.417000       1.00800           0
     22097 TIP3     1583     TIP3     OH2      OT      -0.834000       15.9994           0
     22098 TIP3     1583     TIP3     H1       HT       0.417000       1.00800           0
     22099 TIP3     1583     TIP3     H2       HT       0.417000       1.00800           0
     22100 TIP3     1584     TIP3     OH2      OT      -0.834000       15.9994           0
     22101 TIP3     1584     TIP3     H1       HT       0.417000       1.00800           0
     22102 TIP3     1584     TIP3     H2       HT       0.417000       1.00800           0
     22103 TIP3     1585     TIP3     OH2      OT      -0.834000       15.9994           0
     22104 TIP3     1585     TIP3     H1       HT       0.417000       1.00800           0
     22105 TIP3     1585     TIP3     H2       HT       0.417000       1.00800           0
     22106 TIP3     1586     TIP3     OH2      OT      -0.834000       15.9994           0
     22107 TIP3     1586     TIP3     H1       HT       0.417000       1.00800           0
     22108 TIP3     1586     TIP3     H2       HT       0.417000       1.00800           0
     22109 TIP3     1587     TIP3     OH2      OT      -0.834000       15.9994           0
     22110 TIP3     1587     TIP3     H1       HT       0.417000       1.00800           0
     22111 TIP3     1587     TIP3     H2       HT       0.417000       1.00800           0
     22112 TIP3     1588     TIP3     OH2      OT      -0.834000       15.9994           0
     22113 TIP3     1588     TIP3     H1       HT       0.417000       1.00800           0
     22114 TIP3     1588     TIP3     H2       HT       0.417000       1.00800           0
     22115 TIP3     1589     TIP3     OH2      OT      -0.834000       15.9994           0
     22116 TIP3     1589     TIP3     H1       HT       0.417000       1.00800           0
     22117 TIP3     1589     TIP3     H2       HT       0.417000       1.00800           0
     22118 TIP3     1590     TIP3     OH2      OT      -0.834000       15.9994           0
     22119 TIP3     1590     TIP3     H1       HT       0.417000       1.00800           0
     22120 TIP3     1590     TIP3     H2       HT       0.417000       1.00800           0
     22121 TIP3     1591     TIP3     OH2      OT      -0.834000       15.9994           0
     22122 TIP3     1591     TIP3     H1       HT       0.417000       1.00800           0
     22123 TIP3     1591     TIP3     H2       HT       0.417000       1.00800           0
     22124 TIP3     1592     TIP3     OH2      OT      -0.834000       15.9994           0
     22125 TIP3     1592     TIP3     H1       HT       0.417000       1.00800           0
     22126 TIP3     1592     TIP3     H2       HT       0.417000       1.00800           0
     22127 TIP3     1593     TIP3     OH2      OT      -0.834000       15.9994           0
     22128 TIP3     1593     TIP3     H1       HT       0.417000       1.00800           0
     22129 TIP3     1593     TIP3     H2       HT       0.417000       1.00800           0
     22130 TIP3     1594     TIP3     OH2      OT      -0.834000       15.9994           0
     22131 TIP3     1594     TIP3     H1       HT       0.417000       1.00800           0
     22132 TIP3     1594     TIP3     H2       HT       0.417000       1.00800           0
     22133 TIP3     1595     TIP3     OH2      OT      -0.834000       15.9994           0
     22134 TIP3     1595     TIP3     H1       HT       0.417000       1.00800           0
     22135 TIP3     1595     TIP3     H2       HT       0.417000       1.00800           0
     22136 TIP3     1596     TIP3     OH2      OT      -0.834000       15.9994           0
     22137 TIP3     1596     TIP3     H1       HT       0.417000       1.00800           0
     22138 TIP3     1596     TIP3     H2       HT       0.417000       1.00800           0
     22139 TIP3     1597     TIP3     OH2      OT      -0.834000       15.9994           0
     22140 TIP3     1597     TIP3     H1       HT       0.417000       1.00800           0
     22141 TIP3     1597     TIP3     H2       HT       0.417000       1.00800           0
     22142 TIP3     1598     TIP3     OH2      OT      -0.834000       15.9994           0
     22143 TIP3     1598     TIP3     H1       HT       0.417000       1.00800           0
     22144 TIP3     1598     TIP3     H2       HT       0.417000       1.00800           0
     22145 TIP3     1599     TIP3     OH2      OT      -0.834000       15.9994           0
     22146 TIP3     1599     TIP3     H1       HT       0.417000       1.00800           0
     22147 TIP3     1599     TIP3     H2       HT       0.417000       1.00800           0
     22148 TIP3     1600     TIP3     OH2      OT      -0.834000       15.9994           0
     22149 TIP3     1600     TIP3     H1       HT       0.417000       1.00800           0
     22150 TIP3     1600     TIP3     H2       HT       0.417000       1.00800           0
     22151 TIP3     1601     TIP3     OH2      OT      -0.834000       15.9994           0
     22152 TIP3     1601     TIP3     H1       HT       0.417000       1.00800           0
     22153 TIP3     1601     TIP3     H2       HT       0.417000       1.00800           0
     22154 TIP3     1602     TIP3     OH2      OT      -0.834000       15.9994           0
     22155 TIP3     1602     TIP3     H1       HT       0.417000       1.00800           0
     22156 TIP3     1602     TIP3     H2       HT       0.417000       1.00800           0
     22157 TIP3     1603     TIP3     OH2      OT      -0.834000       15.9994           0
     22158 TIP3     1603     TIP3     H1       HT       0.417000       1.00800           0
     22159 TIP3     1603     TIP3     H2       HT       0.417000       1.00800           0
     22160 TIP3     1604     TIP3     OH2      OT      -0.834000       15.9994           0
     22161 TIP3     1604     TIP3     H1       HT       0.417000       1.00800           0
     22162 TIP3     1604     TIP3     H2       HT       0.417000       1.00800           0
     22163 TIP3     1605     TIP3     OH2      OT      -0.834000       15.9994           0
     22164 TIP3     1605     TIP3     H1       HT       0.417000       1.00800           0
     22165 TIP3     1605     TIP3     H2       HT       0.417000       1.00800           0
     22166 TIP3     1606     TIP3     OH2      OT      -0.834000       15.9994           0
     22167 TIP3     1606     TIP3     H1       HT       0.417000       1.00800           0
     22168 TIP3     1606     TIP3     H2       HT       0.417000       1.00800           0
     22169 TIP3     1607     TIP3     OH2      OT      -0.834000       15.9994           0
     22170 TIP3     1607     TIP3     H1       HT       0.417000       1.00800           0
     22171 TIP3     1607     TIP3     H2       HT       0.417000       1.00800           0
     22172 TIP3     1608     TIP3     OH2      OT      -0.834000       15.9994           0
     22173 TIP3     1608     TIP3     H1       HT       0.417000       1.00800           0
     22174 TIP3     1608     TIP3     H2       HT       0.417000       1.00800           0
     22175 TIP3     1609     TIP3     OH2      OT      -0.834000       15.9994           0
     22176 TIP3     1609     TIP3     H1       HT       0.417000       1.00800           0
     22177 TIP3     1609     TIP3     H2       HT       0.417000       1.00800           0
     22178 TIP3     1610     TIP3     OH2      OT      -0.834000       15.9994           0
     22179 TIP3     1610     TIP3     H1       HT       0.417000       1.00800           0
     22180 TIP3     1610     TIP3     H2       HT       0.417000       1.00800           0
     22181 TIP3     1611     TIP3     OH2      OT      -0.834000       15.9994           0
     22182 TIP3     1611     TIP3     H1       HT       0.417000       1.00800           0
     22183 TIP3     1611     TIP3     H2       HT       0.417000       1.00800           0
     22184 TIP3     1612     TIP3     OH2      OT      -0.834000       15.9994           0
     22185 TIP3     1612     TIP3     H1       HT       0.417000       1.00800           0
     22186 TIP3     1612     TIP3     H2       HT       0.417000       1.00800           0
     22187 TIP3     1613     TIP3     OH2      OT      -0.834000       15.9994           0
     22188 TIP3     1613     TIP3     H1       HT       0.417000       1.00800           0
     22189 TIP3     1613     TIP3     H2       HT       0.417000       1.00800           0
     22190 TIP3     1614     TIP3     OH2      OT      -0.834000       15.9994           0
     22191 TIP3     1614     TIP3     H1       HT       0.417000       1.00800           0
     22192 TIP3     1614     TIP3     H2       HT       0.417000       1.00800           0
     22193 TIP3     1615     TIP3     OH2      OT      -0.834000       15.9994           0
     22194 TIP3     1615     TIP3     H1       HT       0.417000       1.00800           0
     22195 TIP3     1615     TIP3     H2       HT       0.417000       1.00800           0
     22196 TIP3     1616     TIP3     OH2      OT      -0.834000       15.9994           0
     22197 TIP3     1616     TIP3     H1       HT       0.417000       1.00800           0
     22198 TIP3     1616     TIP3     H2       HT       0.417000       1.00800           0
     22199 TIP3     1617     TIP3     OH2      OT      -0.834000       15.9994           0
     22200 TIP3     1617     TIP3     H1       HT       0.417000       1.00800           0
     22201 TIP3     1617     TIP3     H2       HT       0.417000       1.00800           0
     22202 TIP3     1618     TIP3     OH2      OT      -0.834000       15.9994           0
     22203 TIP3     1618     TIP3     H1       HT       0.417000       1.00800           0
     22204 TIP3     1618     TIP3     H2       HT       0.417000       1.00800           0
     22205 TIP3     1619     TIP3     OH2      OT      -0.834000       15.9994           0
     22206 TIP3     1619     TIP3     H1       HT       0.417000       1.00800           0
     22207 TIP3     1619     TIP3     H2       HT       0.417000       1.00800           0
     22208 TIP3     1620     TIP3     OH2      OT      -0.834000       15.9994           0
     22209 TIP3     1620     TIP3     H1       HT       0.417000       1.00800           0
     22210 TIP3     1620     TIP3     H2       HT       0.417000       1.00800           0
     22211 TIP3     1621     TIP3     OH2      OT      -0.834000       15.9994           0
     22212 TIP3     1621     TIP3     H1       HT       0.417000       1.00800           0
     22213 TIP3     1621     TIP3     H2       HT       0.417000       1.00800           0
     22214 TIP3     1622     TIP3     OH2      OT      -0.834000       15.9994           0
     22215 TIP3     1622     TIP3     H1       HT       0.417000       1.00800           0
     22216 TIP3     1622     TIP3     H2       HT       0.417000       1.00800           0
     22217 TIP3     1623     TIP3     OH2      OT      -0.834000       15.9994           0
     22218 TIP3     1623     TIP3     H1       HT       0.417000       1.00800           0
     22219 TIP3     1623     TIP3     H2       HT       0.417000       1.00800           0
     22220 TIP3     1624     TIP3     OH2      OT      -0.834000       15.9994           0
     22221 TIP3     1624     TIP3     H1       HT       0.417000       1.00800           0
     22222 TIP3     1624     TIP3     H2       HT       0.417000       1.00800           0
     22223 TIP3     1625     TIP3     OH2      OT      -0.834000       15.9994           0
     22224 TIP3     1625     TIP3     H1       HT       0.417000       1.00800           0
     22225 TIP3     1625     TIP3     H2       HT       0.417000       1.00800           0
     22226 TIP3     1626     TIP3     OH2      OT      -0.834000       15.9994           0
     22227 TIP3     1626     TIP3     H1       HT       0.417000       1.00800           0
     22228 TIP3     1626     TIP3     H2       HT       0.417000       1.00800           0
     22229 TIP3     1627     TIP3     OH2      OT      -0.834000       15.9994           0
     22230 TIP3     1627     TIP3     H1       HT       0.417000       1.00800           0
     22231 TIP3     1627     TIP3     H2       HT       0.417000       1.00800           0
     22232 TIP3     1628     TIP3     OH2      OT      -0.834000       15.9994           0
     22233 TIP3     1628     TIP3     H1       HT       0.417000       1.00800           0
     22234 TIP3     1628     TIP3     H2       HT       0.417000       1.00800           0
     22235 TIP3     1629     TIP3     OH2      OT      -0.834000       15.9994           0
     22236 TIP3     1629     TIP3     H1       HT       0.417000       1.00800           0
     22237 TIP3     1629     TIP3     H2       HT       0.417000       1.00800           0
     22238 TIP3     1630     TIP3     OH2      OT      -0.834000       15.9994           0
     22239 TIP3     1630     TIP3     H1       HT       0.417000       1.00800           0
     22240 TIP3     1630     TIP3     H2       HT       0.417000       1.00800           0
     22241 TIP3     1631     TIP3     OH2      OT      -0.834000       15.9994           0
     22242 TIP3     1631     TIP3     H1       HT       0.417000       1.00800           0
     22243 TIP3     1631     TIP3     H2       HT       0.417000       1.00800           0
     22244 TIP3     1632     TIP3     OH2      OT      -0.834000       15.9994           0
     22245 TIP3     1632     TIP3     H1       HT       0.417000       1.00800           0
     22246 TIP3     1632     TIP3     H2       HT       0.417000       1.00800           0
     22247 TIP3     1633     TIP3     OH2      OT      -0.834000       15.9994           0
     22248 TIP3     1633     TIP3     H1       HT       0.417000       1.00800           0
     22249 TIP3     1633     TIP3     H2       HT       0.417000       1.00800           0
     22250 TIP3     1634     TIP3     OH2      OT      -0.834000       15.9994           0
     22251 TIP3     1634     TIP3     H1       HT       0.417000       1.00800           0
     22252 TIP3     1634     TIP3     H2       HT       0.417000       1.00800           0
     22253 TIP3     1635     TIP3     OH2      OT      -0.834000       15.9994           0
     22254 TIP3     1635     TIP3     H1       HT       0.417000       1.00800           0
     22255 TIP3     1635     TIP3     H2       HT       0.417000       1.00800           0
     22256 TIP3     1636     TIP3     OH2      OT      -0.834000       15.9994           0
     22257 TIP3     1636     TIP3     H1       HT       0.417000       1.00800           0
     22258 TIP3     1636     TIP3     H2       HT       0.417000       1.00800           0
     22259 TIP3     1637     TIP3     OH2      OT      -0.834000       15.9994           0
     22260 TIP3     1637     TIP3     H1       HT       0.417000       1.00800           0
     22261 TIP3     1637     TIP3     H2       HT       0.417000       1.00800           0
     22262 TIP3     1638     TIP3     OH2      OT      -0.834000       15.9994           0
     22263 TIP3     1638     TIP3     H1       HT       0.417000       1.00800           0
     22264 TIP3     1638     TIP3     H2       HT       0.417000       1.00800           0
     22265 TIP3     1639     TIP3     OH2      OT      -0.834000       15.9994           0
     22266 TIP3     1639     TIP3     H1       HT       0.417000       1.00800           0
     22267 TIP3     1639     TIP3     H2       HT       0.417000       1.00800           0
     22268 TIP3     1640     TIP3     OH2      OT      -0.834000       15.9994           0
     22269 TIP3     1640     TIP3     H1       HT       0.417000       1.00800           0
     22270 TIP3     1640     TIP3     H2       HT       0.417000       1.00800           0
     22271 TIP3     1641     TIP3     OH2      OT      -0.834000       15.9994           0
     22272 TIP3     1641     TIP3     H1       HT       0.417000       1.00800           0
     22273 TIP3     1641     TIP3     H2       HT       0.417000       1.00800           0
     22274 TIP3     1642     TIP3     OH2      OT      -0.834000       15.9994           0
     22275 TIP3     1642     TIP3     H1       HT       0.417000       1.00800           0
     22276 TIP3     1642     TIP3     H2       HT       0.417000       1.00800           0
     22277 TIP3     1643     TIP3     OH2      OT      -0.834000       15.9994           0
     22278 TIP3     1643     TIP3     H1       HT       0.417000       1.00800           0
     22279 TIP3     1643     TIP3     H2       HT       0.417000       1.00800           0
     22280 TIP3     1644     TIP3     OH2      OT      -0.834000       15.9994           0
     22281 TIP3     1644     TIP3     H1       HT       0.417000       1.00800           0
     22282 TIP3     1644     TIP3     H2       HT       0.417000       1.00800           0
     22283 TIP3     1645     TIP3     OH2      OT      -0.834000       15.9994           0
     22284 TIP3     1645     TIP3     H1       HT       0.417000       1.00800           0
     22285 TIP3     1645     TIP3     H2       HT       0.417000       1.00800           0
     22286 TIP3     1646     TIP3     OH2      OT      -0.834000       15.9994           0
     22287 TIP3     1646     TIP3     H1       HT       0.417000       1.00800           0
     22288 TIP3     1646     TIP3     H2       HT       0.417000       1.00800           0
     22289 TIP3     1647     TIP3     OH2      OT      -0.834000       15.9994           0
     22290 TIP3     1647     TIP3     H1       HT       0.417000       1.00800           0
     22291 TIP3     1647     TIP3     H2       HT       0.417000       1.00800           0
     22292 TIP3     1648     TIP3     OH2      OT      -0.834000       15.9994           0
     22293 TIP3     1648     TIP3     H1       HT       0.417000       1.00800           0
     22294 TIP3     1648     TIP3     H2       HT       0.417000       1.00800           0
     22295 TIP3     1649     TIP3     OH2      OT      -0.834000       15.9994           0
     22296 TIP3     1649     TIP3     H1       HT       0.417000       1.00800           0
     22297 TIP3     1649     TIP3     H2       HT       0.417000       1.00800           0
     22298 TIP3     1650     TIP3     OH2      OT      -0.834000       15.9994           0
     22299 TIP3     1650     TIP3     H1       HT       0.417000       1.00800           0
     22300 TIP3     1650     TIP3     H2       HT       0.417000       1.00800           0
     22301 TIP3     1651     TIP3     OH2      OT      -0.834000       15.9994           0
     22302 TIP3     1651     TIP3     H1       HT       0.417000       1.00800           0
     22303 TIP3     1651     TIP3     H2       HT       0.417000       1.00800           0
     22304 TIP3     1652     TIP3     OH2      OT      -0.834000       15.9994           0
     22305 TIP3     1652     TIP3     H1       HT       0.417000       1.00800           0
     22306 TIP3     1652     TIP3     H2       HT       0.417000       1.00800           0
     22307 TIP3     1653     TIP3     OH2      OT      -0.834000       15.9994           0
     22308 TIP3     1653     TIP3     H1       HT       0.417000       1.00800           0
     22309 TIP3     1653     TIP3     H2       HT       0.417000       1.00800           0
     22310 TIP3     1654     TIP3     OH2      OT      -0.834000       15.9994           0
     22311 TIP3     1654     TIP3     H1       HT       0.417000       1.00800           0
     22312 TIP3     1654     TIP3     H2       HT       0.417000       1.00800           0
     22313 TIP3     1655     TIP3     OH2      OT      -0.834000       15.9994           0
     22314 TIP3     1655     TIP3     H1       HT       0.417000       1.00800           0
     22315 TIP3     1655     TIP3     H2       HT       0.417000       1.00800           0
     22316 TIP3     1656     TIP3     OH2      OT      -0.834000       15.9994           0
     22317 TIP3     1656     TIP3     H1       HT       0.417000       1.00800           0
     22318 TIP3     1656     TIP3     H2       HT       0.417000       1.00800           0
     22319 TIP3     1657     TIP3     OH2      OT      -0.834000       15.9994           0
     22320 TIP3     1657     TIP3     H1       HT       0.417000       1.00800           0
     22321 TIP3     1657     TIP3     H2       HT       0.417000       1.00800           0
     22322 TIP3     1658     TIP3     OH2      OT      -0.834000       15.9994           0
     22323 TIP3     1658     TIP3     H1       HT       0.417000       1.00800           0
     22324 TIP3     1658     TIP3     H2       HT       0.417000       1.00800           0
     22325 TIP3     1659     TIP3     OH2      OT      -0.834000       15.9994           0
     22326 TIP3     1659     TIP3     H1       HT       0.417000       1.00800           0
     22327 TIP3     1659     TIP3     H2       HT       0.417000       1.00800           0
     22328 TIP3     1660     TIP3     OH2      OT      -0.834000       15.9994           0
     22329 TIP3     1660     TIP3     H1       HT       0.417000       1.00800           0
     22330 TIP3     1660     TIP3     H2       HT       0.417000       1.00800           0
     22331 TIP3     1661     TIP3     OH2      OT      -0.834000       15.9994           0
     22332 TIP3     1661     TIP3     H1       HT       0.417000       1.00800           0
     22333 TIP3     1661     TIP3     H2       HT       0.417000       1.00800           0
     22334 TIP3     1662     TIP3     OH2      OT      -0.834000       15.9994           0
     22335 TIP3     1662     TIP3     H1       HT       0.417000       1.00800           0
     22336 TIP3     1662     TIP3     H2       HT       0.417000       1.00800           0
     22337 TIP3     1663     TIP3     OH2      OT      -0.834000       15.9994           0
     22338 TIP3     1663     TIP3     H1       HT       0.417000       1.00800           0
     22339 TIP3     1663     TIP3     H2       HT       0.417000       1.00800           0
     22340 TIP3     1664     TIP3     OH2      OT      -0.834000       15.9994           0
     22341 TIP3     1664     TIP3     H1       HT       0.417000       1.00800           0
     22342 TIP3     1664     TIP3     H2       HT       0.417000       1.00800           0
     22343 TIP3     1665     TIP3     OH2      OT      -0.834000       15.9994           0
     22344 TIP3     1665     TIP3     H1       HT       0.417000       1.00800           0
     22345 TIP3     1665     TIP3     H2       HT       0.417000       1.00800           0
     22346 TIP3     1666     TIP3     OH2      OT      -0.834000       15.9994           0
     22347 TIP3     1666     TIP3     H1       HT       0.417000       1.00800           0
     22348 TIP3     1666     TIP3     H2       HT       0.417000       1.00800           0
     22349 TIP3     1667     TIP3     OH2      OT      -0.834000       15.9994           0
     22350 TIP3     1667     TIP3     H1       HT       0.417000       1.00800           0
     22351 TIP3     1667     TIP3     H2       HT       0.417000       1.00800           0
     22352 TIP3     1668     TIP3     OH2      OT      -0.834000       15.9994           0
     22353 TIP3     1668     TIP3     H1       HT       0.417000       1.00800           0
     22354 TIP3     1668     TIP3     H2       HT       0.417000       1.00800           0
     22355 TIP3     1669     TIP3     OH2      OT      -0.834000       15.9994           0
     22356 TIP3     1669     TIP3     H1       HT       0.417000       1.00800           0
     22357 TIP3     1669     TIP3     H2       HT       0.417000       1.00800           0
     22358 TIP3     1670     TIP3     OH2      OT      -0.834000       15.9994           0
     22359 TIP3     1670     TIP3     H1       HT       0.417000       1.00800           0
     22360 TIP3     1670     TIP3     H2       HT       0.417000       1.00800           0
     22361 TIP3     1671     TIP3     OH2      OT      -0.834000       15.9994           0
     22362 TIP3     1671     TIP3     H1       HT       0.417000       1.00800           0
     22363 TIP3     1671     TIP3     H2       HT       0.417000       1.00800           0
     22364 TIP3     1672     TIP3     OH2      OT      -0.834000       15.9994           0
     22365 TIP3     1672     TIP3     H1       HT       0.417000       1.00800           0
     22366 TIP3     1672     TIP3     H2       HT       0.417000       1.00800           0
     22367 TIP3     1673     TIP3     OH2      OT      -0.834000       15.9994           0
     22368 TIP3     1673     TIP3     H1       HT       0.417000       1.00800           0
     22369 TIP3     1673     TIP3     H2       HT       0.417000       1.00800           0
     22370 TIP3     1674     TIP3     OH2      OT      -0.834000       15.9994           0
     22371 TIP3     1674     TIP3     H1       HT       0.417000       1.00800           0
     22372 TIP3     1674     TIP3     H2       HT       0.417000       1.00800           0
     22373 TIP3     1675     TIP3     OH2      OT      -0.834000       15.9994           0
     22374 TIP3     1675     TIP3     H1       HT       0.417000       1.00800           0
     22375 TIP3     1675     TIP3     H2       HT       0.417000       1.00800           0
     22376 TIP3     1676     TIP3     OH2      OT      -0.834000       15.9994           0
     22377 TIP3     1676     TIP3     H1       HT       0.417000       1.00800           0
     22378 TIP3     1676     TIP3     H2       HT       0.417000       1.00800           0
     22379 TIP3     1677     TIP3     OH2      OT      -0.834000       15.9994           0
     22380 TIP3     1677     TIP3     H1       HT       0.417000       1.00800           0
     22381 TIP3     1677     TIP3     H2       HT       0.417000       1.00800           0
     22382 TIP3     1678     TIP3     OH2      OT      -0.834000       15.9994           0
     22383 TIP3     1678     TIP3     H1       HT       0.417000       1.00800           0
     22384 TIP3     1678     TIP3     H2       HT       0.417000       1.00800           0
     22385 TIP3     1679     TIP3     OH2      OT      -0.834000       15.9994           0
     22386 TIP3     1679     TIP3     H1       HT       0.417000       1.00800           0
     22387 TIP3     1679     TIP3     H2       HT       0.417000       1.00800           0
     22388 TIP3     1680     TIP3     OH2      OT      -0.834000       15.9994           0
     22389 TIP3     1680     TIP3     H1       HT       0.417000       1.00800           0
     22390 TIP3     1680     TIP3     H2       HT       0.417000       1.00800           0
     22391 TIP3     1681     TIP3     OH2      OT      -0.834000       15.9994           0
     22392 TIP3     1681     TIP3     H1       HT       0.417000       1.00800           0
     22393 TIP3     1681     TIP3     H2       HT       0.417000       1.00800           0
     22394 TIP3     1682     TIP3     OH2      OT      -0.834000       15.9994           0
     22395 TIP3     1682     TIP3     H1       HT       0.417000       1.00800           0
     22396 TIP3     1682     TIP3     H2       HT       0.417000       1.00800           0
     22397 TIP3     1683     TIP3     OH2      OT      -0.834000       15.9994           0
     22398 TIP3     1683     TIP3     H1       HT       0.417000       1.00800           0
     22399 TIP3     1683     TIP3     H2       HT       0.417000       1.00800           0
     22400 TIP3     1684     TIP3     OH2      OT      -0.834000       15.9994           0
     22401 TIP3     1684     TIP3     H1       HT       0.417000       1.00800           0
     22402 TIP3     1684     TIP3     H2       HT       0.417000       1.00800           0
     22403 TIP3     1685     TIP3     OH2      OT      -0.834000       15.9994           0
     22404 TIP3     1685     TIP3     H1       HT       0.417000       1.00800           0
     22405 TIP3     1685     TIP3     H2       HT       0.417000       1.00800           0
     22406 TIP3     1686     TIP3     OH2      OT      -0.834000       15.9994           0
     22407 TIP3     1686     TIP3     H1       HT       0.417000       1.00800           0
     22408 TIP3     1686     TIP3     H2       HT       0.417000       1.00800           0
     22409 TIP3     1687     TIP3     OH2      OT      -0.834000       15.9994           0
     22410 TIP3     1687     TIP3     H1       HT       0.417000       1.00800           0
     22411 TIP3     1687     TIP3     H2       HT       0.417000       1.00800           0
     22412 TIP3     1688     TIP3     OH2      OT      -0.834000       15.9994           0
     22413 TIP3     1688     TIP3     H1       HT       0.417000       1.00800           0
     22414 TIP3     1688     TIP3     H2       HT       0.417000       1.00800           0
     22415 TIP3     1689     TIP3     OH2      OT      -0.834000       15.9994           0
     22416 TIP3     1689     TIP3     H1       HT       0.417000       1.00800           0
     22417 TIP3     1689     TIP3     H2       HT       0.417000       1.00800           0
     22418 TIP3     1690     TIP3     OH2      OT      -0.834000       15.9994           0
     22419 TIP3     1690     TIP3     H1       HT       0.417000       1.00800           0
     22420 TIP3     1690     TIP3     H2       HT       0.417000       1.00800           0
     22421 TIP3     1691     TIP3     OH2      OT      -0.834000       15.9994           0
     22422 TIP3     1691     TIP3     H1       HT       0.417000       1.00800           0
     22423 TIP3     1691     TIP3     H2       HT       0.417000       1.00800           0
     22424 TIP3     1692     TIP3     OH2      OT      -0.834000       15.9994           0
     22425 TIP3     1692     TIP3     H1       HT       0.417000       1.00800           0
     22426 TIP3     1692     TIP3     H2       HT       0.417000       1.00800           0
     22427 TIP3     1693     TIP3     OH2      OT      -0.834000       15.9994           0
     22428 TIP3     1693     TIP3     H1       HT       0.417000       1.00800           0
     22429 TIP3     1693     TIP3     H2       HT       0.417000       1.00800           0
     22430 TIP3     1694     TIP3     OH2      OT      -0.834000       15.9994           0
     22431 TIP3     1694     TIP3     H1       HT       0.417000       1.00800           0
     22432 TIP3     1694     TIP3     H2       HT       0.417000       1.00800           0
     22433 TIP3     1695     TIP3     OH2      OT      -0.834000       15.9994           0
     22434 TIP3     1695     TIP3     H1       HT       0.417000       1.00800           0
     22435 TIP3     1695     TIP3     H2       HT       0.417000       1.00800           0
     22436 TIP3     1696     TIP3     OH2      OT      -0.834000       15.9994           0
     22437 TIP3     1696     TIP3     H1       HT       0.417000       1.00800           0
     22438 TIP3     1696     TIP3     H2       HT       0.417000       1.00800           0
     22439 TIP3     1697     TIP3     OH2      OT      -0.834000       15.9994           0
     22440 TIP3     1697     TIP3     H1       HT       0.417000       1.00800           0
     22441 TIP3     1697     TIP3     H2       HT       0.417000       1.00800           0
     22442 TIP3     1698     TIP3     OH2      OT      -0.834000       15.9994           0
     22443 TIP3     1698     TIP3     H1       HT       0.417000       1.00800           0
     22444 TIP3     1698     TIP3     H2       HT       0.417000       1.00800           0
     22445 TIP3     1699     TIP3     OH2      OT      -0.834000       15.9994           0
     22446 TIP3     1699     TIP3     H1       HT       0.417000       1.00800           0
     22447 TIP3     1699     TIP3     H2       HT       0.417000       1.00800           0
     22448 TIP3     1700     TIP3     OH2      OT      -0.834000       15.9994           0
     22449 TIP3     1700     TIP3     H1       HT       0.417000       1.00800           0
     22450 TIP3     1700     TIP3     H2       HT       0.417000       1.00800           0
     22451 TIP3     1701     TIP3     OH2      OT      -0.834000       15.9994           0
     22452 TIP3     1701     TIP3     H1       HT       0.417000       1.00800           0
     22453 TIP3     1701     TIP3     H2       HT       0.417000       1.00800           0
     22454 TIP3     1702     TIP3     OH2      OT      -0.834000       15.9994           0
     22455 TIP3     1702     TIP3     H1       HT       0.417000       1.00800           0
     22456 TIP3     1702     TIP3     H2       HT       0.417000       1.00800           0
     22457 TIP3     1703     TIP3     OH2      OT      -0.834000       15.9994           0
     22458 TIP3     1703     TIP3     H1       HT       0.417000       1.00800           0
     22459 TIP3     1703     TIP3     H2       HT       0.417000       1.00800           0
     22460 TIP3     1704     TIP3     OH2      OT      -0.834000       15.9994           0
     22461 TIP3     1704     TIP3     H1       HT       0.417000       1.00800           0
     22462 TIP3     1704     TIP3     H2       HT       0.417000       1.00800           0
     22463 TIP3     1705     TIP3     OH2      OT      -0.834000       15.9994           0
     22464 TIP3     1705     TIP3     H1       HT       0.417000       1.00800           0
     22465 TIP3     1705     TIP3     H2       HT       0.417000       1.00800           0
     22466 TIP3     1706     TIP3     OH2      OT      -0.834000       15.9994           0
     22467 TIP3     1706     TIP3     H1       HT       0.417000       1.00800           0
     22468 TIP3     1706     TIP3     H2       HT       0.417000       1.00800           0
     22469 TIP3     1707     TIP3     OH2      OT      -0.834000       15.9994           0
     22470 TIP3     1707     TIP3     H1       HT       0.417000       1.00800           0
     22471 TIP3     1707     TIP3     H2       HT       0.417000       1.00800           0
     22472 TIP3     1708     TIP3     OH2      OT      -0.834000       15.9994           0
     22473 TIP3     1708     TIP3     H1       HT       0.417000       1.00800           0
     22474 TIP3     1708     TIP3     H2       HT       0.417000       1.00800           0
     22475 TIP3     1709     TIP3     OH2      OT      -0.834000       15.9994           0
     22476 TIP3     1709     TIP3     H1       HT       0.417000       1.00800           0
     22477 TIP3     1709     TIP3     H2       HT       0.417000       1.00800           0
     22478 TIP3     1710     TIP3     OH2      OT      -0.834000       15.9994           0
     22479 TIP3     1710     TIP3     H1       HT       0.417000       1.00800           0
     22480 TIP3     1710     TIP3     H2       HT       0.417000       1.00800           0
     22481 TIP3     1711     TIP3     OH2      OT      -0.834000       15.9994           0
     22482 TIP3     1711     TIP3     H1       HT       0.417000       1.00800           0
     22483 TIP3     1711     TIP3     H2       HT       0.417000       1.00800           0
     22484 TIP3     1712     TIP3     OH2      OT      -0.834000       15.9994           0
     22485 TIP3     1712     TIP3     H1       HT       0.417000       1.00800           0
     22486 TIP3     1712     TIP3     H2       HT       0.417000       1.00800           0
     22487 TIP3     1713     TIP3     OH2      OT      -0.834000       15.9994           0
     22488 TIP3     1713     TIP3     H1       HT       0.417000       1.00800           0
     22489 TIP3     1713     TIP3     H2       HT       0.417000       1.00800           0
     22490 TIP3     1714     TIP3     OH2      OT      -0.834000       15.9994           0
     22491 TIP3     1714     TIP3     H1       HT       0.417000       1.00800           0
     22492 TIP3     1714     TIP3     H2       HT       0.417000       1.00800           0
     22493 TIP3     1715     TIP3     OH2      OT      -0.834000       15.9994           0
     22494 TIP3     1715     TIP3     H1       HT       0.417000       1.00800           0
     22495 TIP3     1715     TIP3     H2       HT       0.417000       1.00800           0
     22496 TIP3     1716     TIP3     OH2      OT      -0.834000       15.9994           0
     22497 TIP3     1716     TIP3     H1       HT       0.417000       1.00800           0
     22498 TIP3     1716     TIP3     H2       HT       0.417000       1.00800           0
     22499 TIP3     1717     TIP3     OH2      OT      -0.834000       15.9994           0
     22500 TIP3     1717     TIP3     H1       HT       0.417000       1.00800           0
     22501 TIP3     1717     TIP3     H2       HT       0.417000       1.00800           0
     22502 TIP3     1718     TIP3     OH2      OT      -0.834000       15.9994           0
     22503 TIP3     1718     TIP3     H1       HT       0.417000       1.00800           0
     22504 TIP3     1718     TIP3     H2       HT       0.417000       1.00800           0
     22505 TIP3     1719     TIP3     OH2      OT      -0.834000       15.9994           0
     22506 TIP3     1719     TIP3     H1       HT       0.417000       1.00800           0
     22507 TIP3     1719     TIP3     H2       HT       0.417000       1.00800           0
     22508 TIP3     1720     TIP3     OH2      OT      -0.834000       15.9994           0
     22509 TIP3     1720     TIP3     H1       HT       0.417000       1.00800           0
     22510 TIP3     1720     TIP3     H2       HT       0.417000       1.00800           0
     22511 TIP3     1721     TIP3     OH2      OT      -0.834000       15.9994           0
     22512 TIP3     1721     TIP3     H1       HT       0.417000       1.00800           0
     22513 TIP3     1721     TIP3     H2       HT       0.417000       1.00800           0
     22514 TIP3     1722     TIP3     OH2      OT      -0.834000       15.9994           0
     22515 TIP3     1722     TIP3     H1       HT       0.417000       1.00800           0
     22516 TIP3     1722     TIP3     H2       HT       0.417000       1.00800           0
     22517 TIP3     1723     TIP3     OH2      OT      -0.834000       15.9994           0
     22518 TIP3     1723     TIP3     H1       HT       0.417000       1.00800           0
     22519 TIP3     1723     TIP3     H2       HT       0.417000       1.00800           0
     22520 TIP3     1724     TIP3     OH2      OT      -0.834000       15.9994           0
     22521 TIP3     1724     TIP3     H1       HT       0.417000       1.00800           0
     22522 TIP3     1724     TIP3     H2       HT       0.417000       1.00800           0
     22523 TIP3     1725     TIP3     OH2      OT      -0.834000       15.9994           0
     22524 TIP3     1725     TIP3     H1       HT       0.417000       1.00800           0
     22525 TIP3     1725     TIP3     H2       HT       0.417000       1.00800           0
     22526 TIP3     1726     TIP3     OH2      OT      -0.834000       15.9994           0
     22527 TIP3     1726     TIP3     H1       HT       0.417000       1.00800           0
     22528 TIP3     1726     TIP3     H2       HT       0.417000       1.00800           0
     22529 TIP3     1727     TIP3     OH2      OT      -0.834000       15.9994           0
     22530 TIP3     1727     TIP3     H1       HT       0.417000       1.00800           0
     22531 TIP3     1727     TIP3     H2       HT       0.417000       1.00800           0
     22532 TIP3     1728     TIP3     OH2      OT      -0.834000       15.9994           0
     22533 TIP3     1728     TIP3     H1       HT       0.417000       1.00800           0
     22534 TIP3     1728     TIP3     H2       HT       0.417000       1.00800           0
     22535 TIP3     1729     TIP3     OH2      OT      -0.834000       15.9994           0
     22536 TIP3     1729     TIP3     H1       HT       0.417000       1.00800           0
     22537 TIP3     1729     TIP3     H2       HT       0.417000       1.00800           0
     22538 TIP3     1730     TIP3     OH2      OT      -0.834000       15.9994           0
     22539 TIP3     1730     TIP3     H1       HT       0.417000       1.00800           0
     22540 TIP3     1730     TIP3     H2       HT       0.417000       1.00800           0
     22541 TIP3     1731     TIP3     OH2      OT      -0.834000       15.9994           0
     22542 TIP3     1731     TIP3     H1       HT       0.417000       1.00800           0
     22543 TIP3     1731     TIP3     H2       HT       0.417000       1.00800           0
     22544 TIP3     1732     TIP3     OH2      OT      -0.834000       15.9994           0
     22545 TIP3     1732     TIP3     H1       HT       0.417000       1.00800           0
     22546 TIP3     1732     TIP3     H2       HT       0.417000       1.00800           0
     22547 TIP3     1733     TIP3     OH2      OT      -0.834000       15.9994           0
     22548 TIP3     1733     TIP3     H1       HT       0.417000       1.00800           0
     22549 TIP3     1733     TIP3     H2       HT       0.417000       1.00800           0
     22550 TIP3     1734     TIP3     OH2      OT      -0.834000       15.9994           0
     22551 TIP3     1734     TIP3     H1       HT       0.417000       1.00800           0
     22552 TIP3     1734     TIP3     H2       HT       0.417000       1.00800           0
     22553 TIP3     1735     TIP3     OH2      OT      -0.834000       15.9994           0
     22554 TIP3     1735     TIP3     H1       HT       0.417000       1.00800           0
     22555 TIP3     1735     TIP3     H2       HT       0.417000       1.00800           0
     22556 TIP3     1736     TIP3     OH2      OT      -0.834000       15.9994           0
     22557 TIP3     1736     TIP3     H1       HT       0.417000       1.00800           0
     22558 TIP3     1736     TIP3     H2       HT       0.417000       1.00800           0
     22559 TIP3     1737     TIP3     OH2      OT      -0.834000       15.9994           0
     22560 TIP3     1737     TIP3     H1       HT       0.417000       1.00800           0
     22561 TIP3     1737     TIP3     H2       HT       0.417000       1.00800           0
     22562 TIP3     1738     TIP3     OH2      OT      -0.834000       15.9994           0
     22563 TIP3     1738     TIP3     H1       HT       0.417000       1.00800           0
     22564 TIP3     1738     TIP3     H2       HT       0.417000       1.00800           0
     22565 TIP3     1739     TIP3     OH2      OT      -0.834000       15.9994           0
     22566 TIP3     1739     TIP3     H1       HT       0.417000       1.00800           0
     22567 TIP3     1739     TIP3     H2       HT       0.417000       1.00800           0
     22568 TIP3     1740     TIP3     OH2      OT      -0.834000       15.9994           0
     22569 TIP3     1740     TIP3     H1       HT       0.417000       1.00800           0
     22570 TIP3     1740     TIP3     H2       HT       0.417000       1.00800           0
     22571 TIP3     1741     TIP3     OH2      OT      -0.834000       15.9994           0
     22572 TIP3     1741     TIP3     H1       HT       0.417000       1.00800           0
     22573 TIP3     1741     TIP3     H2       HT       0.417000       1.00800           0
     22574 TIP3     1742     TIP3     OH2      OT      -0.834000       15.9994           0
     22575 TIP3     1742     TIP3     H1       HT       0.417000       1.00800           0
     22576 TIP3     1742     TIP3     H2       HT       0.417000       1.00800           0
     22577 TIP3     1743     TIP3     OH2      OT      -0.834000       15.9994           0
     22578 TIP3     1743     TIP3     H1       HT       0.417000       1.00800           0
     22579 TIP3     1743     TIP3     H2       HT       0.417000       1.00800           0
     22580 TIP3     1744     TIP3     OH2      OT      -0.834000       15.9994           0
     22581 TIP3     1744     TIP3     H1       HT       0.417000       1.00800           0
     22582 TIP3     1744     TIP3     H2       HT       0.417000       1.00800           0
     22583 TIP3     1745     TIP3     OH2      OT      -0.834000       15.9994           0
     22584 TIP3     1745     TIP3     H1       HT       0.417000       1.00800           0
     22585 TIP3     1745     TIP3     H2       HT       0.417000       1.00800           0
     22586 TIP3     1746     TIP3     OH2      OT      -0.834000       15.9994           0
     22587 TIP3     1746     TIP3     H1       HT       0.417000       1.00800           0
     22588 TIP3     1746     TIP3     H2       HT       0.417000       1.00800           0
     22589 TIP3     1747     TIP3     OH2      OT      -0.834000       15.9994           0
     22590 TIP3     1747     TIP3     H1       HT       0.417000       1.00800           0
     22591 TIP3     1747     TIP3     H2       HT       0.417000       1.00800           0
     22592 TIP3     1748     TIP3     OH2      OT      -0.834000       15.9994           0
     22593 TIP3     1748     TIP3     H1       HT       0.417000       1.00800           0
     22594 TIP3     1748     TIP3     H2       HT       0.417000       1.00800           0
     22595 TIP3     1749     TIP3     OH2      OT      -0.834000       15.9994           0
     22596 TIP3     1749     TIP3     H1       HT       0.417000       1.00800           0
     22597 TIP3     1749     TIP3     H2       HT       0.417000       1.00800           0
     22598 TIP3     1750     TIP3     OH2      OT      -0.834000       15.9994           0
     22599 TIP3     1750     TIP3     H1       HT       0.417000       1.00800           0
     22600 TIP3     1750     TIP3     H2       HT       0.417000       1.00800           0
     22601 TIP3     1751     TIP3     OH2      OT      -0.834000       15.9994           0
     22602 TIP3     1751     TIP3     H1       HT       0.417000       1.00800           0
     22603 TIP3     1751     TIP3     H2       HT       0.417000       1.00800           0
     22604 TIP3     1752     TIP3     OH2      OT      -0.834000       15.9994           0
     22605 TIP3     1752     TIP3     H1       HT       0.417000       1.00800           0
     22606 TIP3     1752     TIP3     H2       HT       0.417000       1.00800           0
     22607 TIP3     1753     TIP3     OH2      OT      -0.834000       15.9994           0
     22608 TIP3     1753     TIP3     H1       HT       0.417000       1.00800           0
     22609 TIP3     1753     TIP3     H2       HT       0.417000       1.00800           0
     22610 TIP3     1754     TIP3     OH2      OT      -0.834000       15.9994           0
     22611 TIP3     1754     TIP3     H1       HT       0.417000       1.00800           0
     22612 TIP3     1754     TIP3     H2       HT       0.417000       1.00800           0
     22613 TIP3     1755     TIP3     OH2      OT      -0.834000       15.9994           0
     22614 TIP3     1755     TIP3     H1       HT       0.417000       1.00800           0
     22615 TIP3     1755     TIP3     H2       HT       0.417000       1.00800           0
     22616 TIP3     1756     TIP3     OH2      OT      -0.834000       15.9994           0
     22617 TIP3     1756     TIP3     H1       HT       0.417000       1.00800           0
     22618 TIP3     1756     TIP3     H2       HT       0.417000       1.00800           0
     22619 TIP3     1757     TIP3     OH2      OT      -0.834000       15.9994           0
     22620 TIP3     1757     TIP3     H1       HT       0.417000       1.00800           0
     22621 TIP3     1757     TIP3     H2       HT       0.417000       1.00800           0
     22622 TIP3     1758     TIP3     OH2      OT      -0.834000       15.9994           0
     22623 TIP3     1758     TIP3     H1       HT       0.417000       1.00800           0
     22624 TIP3     1758     TIP3     H2       HT       0.417000       1.00800           0
     22625 TIP3     1759     TIP3     OH2      OT      -0.834000       15.9994           0
     22626 TIP3     1759     TIP3     H1       HT       0.417000       1.00800           0
     22627 TIP3     1759     TIP3     H2       HT       0.417000       1.00800           0
     22628 TIP3     1760     TIP3     OH2      OT      -0.834000       15.9994           0
     22629 TIP3     1760     TIP3     H1       HT       0.417000       1.00800           0
     22630 TIP3     1760     TIP3     H2       HT       0.417000       1.00800           0
     22631 TIP3     1761     TIP3     OH2      OT      -0.834000       15.9994           0
     22632 TIP3     1761     TIP3     H1       HT       0.417000       1.00800           0
     22633 TIP3     1761     TIP3     H2       HT       0.417000       1.00800           0
     22634 TIP3     1762     TIP3     OH2      OT      -0.834000       15.9994           0
     22635 TIP3     1762     TIP3     H1       HT       0.417000       1.00800           0
     22636 TIP3     1762     TIP3     H2       HT       0.417000       1.00800           0
     22637 TIP3     1763     TIP3     OH2      OT      -0.834000       15.9994           0
     22638 TIP3     1763     TIP3     H1       HT       0.417000       1.00800           0
     22639 TIP3     1763     TIP3     H2       HT       0.417000       1.00800           0
     22640 TIP3     1764     TIP3     OH2      OT      -0.834000       15.9994           0
     22641 TIP3     1764     TIP3     H1       HT       0.417000       1.00800           0
     22642 TIP3     1764     TIP3     H2       HT       0.417000       1.00800           0
     22643 TIP3     1765     TIP3     OH2      OT      -0.834000       15.9994           0
     22644 TIP3     1765     TIP3     H1       HT       0.417000       1.00800           0
     22645 TIP3     1765     TIP3     H2       HT       0.417000       1.00800           0
     22646 TIP3     1766     TIP3     OH2      OT      -0.834000       15.9994           0
     22647 TIP3     1766     TIP3     H1       HT       0.417000       1.00800           0
     22648 TIP3     1766     TIP3     H2       HT       0.417000       1.00800           0
     22649 TIP3     1767     TIP3     OH2      OT      -0.834000       15.9994           0
     22650 TIP3     1767     TIP3     H1       HT       0.417000       1.00800           0
     22651 TIP3     1767     TIP3     H2       HT       0.417000       1.00800           0
     22652 TIP3     1768     TIP3     OH2      OT      -0.834000       15.9994           0
     22653 TIP3     1768     TIP3     H1       HT       0.417000       1.00800           0
     22654 TIP3     1768     TIP3     H2       HT       0.417000       1.00800           0
     22655 TIP3     1769     TIP3     OH2      OT      -0.834000       15.9994           0
     22656 TIP3     1769     TIP3     H1       HT       0.417000       1.00800           0
     22657 TIP3     1769     TIP3     H2       HT       0.417000       1.00800           0
     22658 TIP3     1770     TIP3     OH2      OT      -0.834000       15.9994           0
     22659 TIP3     1770     TIP3     H1       HT       0.417000       1.00800           0
     22660 TIP3     1770     TIP3     H2       HT       0.417000       1.00800           0
     22661 TIP3     1771     TIP3     OH2      OT      -0.834000       15.9994           0
     22662 TIP3     1771     TIP3     H1       HT       0.417000       1.00800           0
     22663 TIP3     1771     TIP3     H2       HT       0.417000       1.00800           0
     22664 TIP3     1772     TIP3     OH2      OT      -0.834000       15.9994           0
     22665 TIP3     1772     TIP3     H1       HT       0.417000       1.00800           0
     22666 TIP3     1772     TIP3     H2       HT       0.417000       1.00800           0
     22667 TIP3     1773     TIP3     OH2      OT      -0.834000       15.9994           0
     22668 TIP3     1773     TIP3     H1       HT       0.417000       1.00800           0
     22669 TIP3     1773     TIP3     H2       HT       0.417000       1.00800           0
     22670 TIP3     1774     TIP3     OH2      OT      -0.834000       15.9994           0
     22671 TIP3     1774     TIP3     H1       HT       0.417000       1.00800           0
     22672 TIP3     1774     TIP3     H2       HT       0.417000       1.00800           0
     22673 TIP3     1775     TIP3     OH2      OT      -0.834000       15.9994           0
     22674 TIP3     1775     TIP3     H1       HT       0.417000       1.00800           0
     22675 TIP3     1775     TIP3     H2       HT       0.417000       1.00800           0
     22676 TIP3     1776     TIP3     OH2      OT      -0.834000       15.9994           0
     22677 TIP3     1776     TIP3     H1       HT       0.417000       1.00800           0
     22678 TIP3     1776     TIP3     H2       HT       0.417000       1.00800           0
     22679 TIP3     1777     TIP3     OH2      OT      -0.834000       15.9994           0
     22680 TIP3     1777     TIP3     H1       HT       0.417000       1.00800           0
     22681 TIP3     1777     TIP3     H2       HT       0.417000       1.00800           0
     22682 TIP3     1778     TIP3     OH2      OT      -0.834000       15.9994           0
     22683 TIP3     1778     TIP3     H1       HT       0.417000       1.00800           0
     22684 TIP3     1778     TIP3     H2       HT       0.417000       1.00800           0
     22685 TIP3     1779     TIP3     OH2      OT      -0.834000       15.9994           0
     22686 TIP3     1779     TIP3     H1       HT       0.417000       1.00800           0
     22687 TIP3     1779     TIP3     H2       HT       0.417000       1.00800           0
     22688 TIP3     1780     TIP3     OH2      OT      -0.834000       15.9994           0
     22689 TIP3     1780     TIP3     H1       HT       0.417000       1.00800           0
     22690 TIP3     1780     TIP3     H2       HT       0.417000       1.00800           0
     22691 TIP3     1781     TIP3     OH2      OT      -0.834000       15.9994           0
     22692 TIP3     1781     TIP3     H1       HT       0.417000       1.00800           0
     22693 TIP3     1781     TIP3     H2       HT       0.417000       1.00800           0
     22694 TIP3     1782     TIP3     OH2      OT      -0.834000       15.9994           0
     22695 TIP3     1782     TIP3     H1       HT       0.417000       1.00800           0
     22696 TIP3     1782     TIP3     H2       HT       0.417000       1.00800           0
     22697 TIP3     1783     TIP3     OH2      OT      -0.834000       15.9994           0
     22698 TIP3     1783     TIP3     H1       HT       0.417000       1.00800           0
     22699 TIP3     1783     TIP3     H2       HT       0.417000       1.00800           0
     22700 TIP3     1784     TIP3     OH2      OT      -0.834000       15.9994           0
     22701 TIP3     1784     TIP3     H1       HT       0.417000       1.00800           0
     22702 TIP3     1784     TIP3     H2       HT       0.417000       1.00800           0
     22703 TIP3     1785     TIP3     OH2      OT      -0.834000       15.9994           0
     22704 TIP3     1785     TIP3     H1       HT       0.417000       1.00800           0
     22705 TIP3     1785     TIP3     H2       HT       0.417000       1.00800           0
     22706 TIP3     1786     TIP3     OH2      OT      -0.834000       15.9994           0
     22707 TIP3     1786     TIP3     H1       HT       0.417000       1.00800           0
     22708 TIP3     1786     TIP3     H2       HT       0.417000       1.00800           0
     22709 TIP3     1787     TIP3     OH2      OT      -0.834000       15.9994           0
     22710 TIP3     1787     TIP3     H1       HT       0.417000       1.00800           0
     22711 TIP3     1787     TIP3     H2       HT       0.417000       1.00800           0
     22712 TIP3     1788     TIP3     OH2      OT      -0.834000       15.9994           0
     22713 TIP3     1788     TIP3     H1       HT       0.417000       1.00800           0
     22714 TIP3     1788     TIP3     H2       HT       0.417000       1.00800           0
     22715 TIP3     1789     TIP3     OH2      OT      -0.834000       15.9994           0
     22716 TIP3     1789     TIP3     H1       HT       0.417000       1.00800           0
     22717 TIP3     1789     TIP3     H2       HT       0.417000       1.00800           0
     22718 TIP3     1790     TIP3     OH2      OT      -0.834000       15.9994           0
     22719 TIP3     1790     TIP3     H1       HT       0.417000       1.00800           0
     22720 TIP3     1790     TIP3     H2       HT       0.417000       1.00800           0
     22721 TIP3     1791     TIP3     OH2      OT      -0.834000       15.9994           0
     22722 TIP3     1791     TIP3     H1       HT       0.417000       1.00800           0
     22723 TIP3     1791     TIP3     H2       HT       0.417000       1.00800           0
     22724 TIP3     1792     TIP3     OH2      OT      -0.834000       15.9994           0
     22725 TIP3     1792     TIP3     H1       HT       0.417000       1.00800           0
     22726 TIP3     1792     TIP3     H2       HT       0.417000       1.00800           0
     22727 TIP3     1793     TIP3     OH2      OT      -0.834000       15.9994           0
     22728 TIP3     1793     TIP3     H1       HT       0.417000       1.00800           0
     22729 TIP3     1793     TIP3     H2       HT       0.417000       1.00800           0
     22730 TIP3     1794     TIP3     OH2      OT      -0.834000       15.9994           0
     22731 TIP3     1794     TIP3     H1       HT       0.417000       1.00800           0
     22732 TIP3     1794     TIP3     H2       HT       0.417000       1.00800           0
     22733 TIP3     1795     TIP3     OH2      OT      -0.834000       15.9994           0
     22734 TIP3     1795     TIP3     H1       HT       0.417000       1.00800           0
     22735 TIP3     1795     TIP3     H2       HT       0.417000       1.00800           0
     22736 TIP3     1796     TIP3     OH2      OT      -0.834000       15.9994           0
     22737 TIP3     1796     TIP3     H1       HT       0.417000       1.00800           0
     22738 TIP3     1796     TIP3     H2       HT       0.417000       1.00800           0
     22739 TIP3     1797     TIP3     OH2      OT      -0.834000       15.9994           0
     22740 TIP3     1797     TIP3     H1       HT       0.417000       1.00800           0
     22741 TIP3     1797     TIP3     H2       HT       0.417000       1.00800           0
     22742 TIP3     1798     TIP3     OH2      OT      -0.834000       15.9994           0
     22743 TIP3     1798     TIP3     H1       HT       0.417000       1.00800           0
     22744 TIP3     1798     TIP3     H2       HT       0.417000       1.00800           0
     22745 TIP3     1799     TIP3     OH2      OT      -0.834000       15.9994           0
     22746 TIP3     1799     TIP3     H1       HT       0.417000       1.00800           0
     22747 TIP3     1799     TIP3     H2       HT       0.417000       1.00800           0
     22748 TIP3     1800     TIP3     OH2      OT      -0.834000       15.9994           0
     22749 TIP3     1800     TIP3     H1       HT       0.417000       1.00800           0
     22750 TIP3     1800     TIP3     H2       HT       0.417000       1.00800           0
     22751 TIP3     1801     TIP3     OH2      OT      -0.834000       15.9994           0
     22752 TIP3     1801     TIP3     H1       HT       0.417000       1.00800           0
     22753 TIP3     1801     TIP3     H2       HT       0.417000       1.00800           0
     22754 TIP3     1802     TIP3     OH2      OT      -0.834000       15.9994           0
     22755 TIP3     1802     TIP3     H1       HT       0.417000       1.00800           0
     22756 TIP3     1802     TIP3     H2       HT       0.417000       1.00800           0
     22757 TIP3     1803     TIP3     OH2      OT      -0.834000       15.9994           0
     22758 TIP3     1803     TIP3     H1       HT       0.417000       1.00800           0
     22759 TIP3     1803     TIP3     H2       HT       0.417000       1.00800           0
     22760 TIP3     1804     TIP3     OH2      OT      -0.834000       15.9994           0
     22761 TIP3     1804     TIP3     H1       HT       0.417000       1.00800           0
     22762 TIP3     1804     TIP3     H2       HT       0.417000       1.00800           0
     22763 TIP3     1805     TIP3     OH2      OT      -0.834000       15.9994           0
     22764 TIP3     1805     TIP3     H1       HT       0.417000       1.00800           0
     22765 TIP3     1805     TIP3     H2       HT       0.417000       1.00800           0
     22766 TIP3     1806     TIP3     OH2      OT      -0.834000       15.9994           0
     22767 TIP3     1806     TIP3     H1       HT       0.417000       1.00800           0
     22768 TIP3     1806     TIP3     H2       HT       0.417000       1.00800           0
     22769 TIP3     1807     TIP3     OH2      OT      -0.834000       15.9994           0
     22770 TIP3     1807     TIP3     H1       HT       0.417000       1.00800           0
     22771 TIP3     1807     TIP3     H2       HT       0.417000       1.00800           0
     22772 TIP3     1808     TIP3     OH2      OT      -0.834000       15.9994           0
     22773 TIP3     1808     TIP3     H1       HT       0.417000       1.00800           0
     22774 TIP3     1808     TIP3     H2       HT       0.417000       1.00800           0
     22775 TIP3     1809     TIP3     OH2      OT      -0.834000       15.9994           0
     22776 TIP3     1809     TIP3     H1       HT       0.417000       1.00800           0
     22777 TIP3     1809     TIP3     H2       HT       0.417000       1.00800           0
     22778 TIP3     1810     TIP3     OH2      OT      -0.834000       15.9994           0
     22779 TIP3     1810     TIP3     H1       HT       0.417000       1.00800           0
     22780 TIP3     1810     TIP3     H2       HT       0.417000       1.00800           0
     22781 TIP3     1811     TIP3     OH2      OT      -0.834000       15.9994           0
     22782 TIP3     1811     TIP3     H1       HT       0.417000       1.00800           0
     22783 TIP3     1811     TIP3     H2       HT       0.417000       1.00800           0
     22784 TIP3     1812     TIP3     OH2      OT      -0.834000       15.9994           0
     22785 TIP3     1812     TIP3     H1       HT       0.417000       1.00800           0
     22786 TIP3     1812     TIP3     H2       HT       0.417000       1.00800           0
     22787 TIP3     1813     TIP3     OH2      OT      -0.834000       15.9994           0
     22788 TIP3     1813     TIP3     H1       HT       0.417000       1.00800           0
     22789 TIP3     1813     TIP3     H2       HT       0.417000       1.00800           0
     22790 TIP3     1814     TIP3     OH2      OT      -0.834000       15.9994           0
     22791 TIP3     1814     TIP3     H1       HT       0.417000       1.00800           0
     22792 TIP3     1814     TIP3     H2       HT       0.417000       1.00800           0
     22793 TIP3     1815     TIP3     OH2      OT      -0.834000       15.9994           0
     22794 TIP3     1815     TIP3     H1       HT       0.417000       1.00800           0
     22795 TIP3     1815     TIP3     H2       HT       0.417000       1.00800           0
     22796 TIP3     1816     TIP3     OH2      OT      -0.834000       15.9994           0
     22797 TIP3     1816     TIP3     H1       HT       0.417000       1.00800           0
     22798 TIP3     1816     TIP3     H2       HT       0.417000       1.00800           0
     22799 TIP3     1817     TIP3     OH2      OT      -0.834000       15.9994           0
     22800 TIP3     1817     TIP3     H1       HT       0.417000       1.00800           0
     22801 TIP3     1817     TIP3     H2       HT       0.417000       1.00800           0
     22802 TIP3     1818     TIP3     OH2      OT      -0.834000       15.9994           0
     22803 TIP3     1818     TIP3     H1       HT       0.417000       1.00800           0
     22804 TIP3     1818     TIP3     H2       HT       0.417000       1.00800           0
     22805 TIP3     1819     TIP3     OH2      OT      -0.834000       15.9994           0
     22806 TIP3     1819     TIP3     H1       HT       0.417000       1.00800           0
     22807 TIP3     1819     TIP3     H2       HT       0.417000       1.00800           0
     22808 TIP3     1820     TIP3     OH2      OT      -0.834000       15.9994           0
     22809 TIP3     1820     TIP3     H1       HT       0.417000       1.00800           0
     22810 TIP3     1820     TIP3     H2       HT       0.417000       1.00800           0
     22811 TIP3     1821     TIP3     OH2      OT      -0.834000       15.9994           0
     22812 TIP3     1821     TIP3     H1       HT       0.417000       1.00800           0
     22813 TIP3     1821     TIP3     H2       HT       0.417000       1.00800           0
     22814 TIP3     1822     TIP3     OH2      OT      -0.834000       15.9994           0
     22815 TIP3     1822     TIP3     H1       HT       0.417000       1.00800           0
     22816 TIP3     1822     TIP3     H2       HT       0.417000       1.00800           0
     22817 TIP3     1823     TIP3     OH2      OT      -0.834000       15.9994           0
     22818 TIP3     1823     TIP3     H1       HT       0.417000       1.00800           0
     22819 TIP3     1823     TIP3     H2       HT       0.417000       1.00800           0
     22820 TIP3     1824     TIP3     OH2      OT      -0.834000       15.9994           0
     22821 TIP3     1824     TIP3     H1       HT       0.417000       1.00800           0
     22822 TIP3     1824     TIP3     H2       HT       0.417000       1.00800           0
     22823 TIP3     1825     TIP3     OH2      OT      -0.834000       15.9994           0
     22824 TIP3     1825     TIP3     H1       HT       0.417000       1.00800           0
     22825 TIP3     1825     TIP3     H2       HT       0.417000       1.00800           0
     22826 TIP3     1826     TIP3     OH2      OT      -0.834000       15.9994           0
     22827 TIP3     1826     TIP3     H1       HT       0.417000       1.00800           0
     22828 TIP3     1826     TIP3     H2       HT       0.417000       1.00800           0
     22829 TIP3     1827     TIP3     OH2      OT      -0.834000       15.9994           0
     22830 TIP3     1827     TIP3     H1       HT       0.417000       1.00800           0
     22831 TIP3     1827     TIP3     H2       HT       0.417000       1.00800           0
     22832 TIP3     1828     TIP3     OH2      OT      -0.834000       15.9994           0
     22833 TIP3     1828     TIP3     H1       HT       0.417000       1.00800           0
     22834 TIP3     1828     TIP3     H2       HT       0.417000       1.00800           0
     22835 TIP3     1829     TIP3     OH2      OT      -0.834000       15.9994           0
     22836 TIP3     1829     TIP3     H1       HT       0.417000       1.00800           0
     22837 TIP3     1829     TIP3     H2       HT       0.417000       1.00800           0
     22838 TIP3     1830     TIP3     OH2      OT      -0.834000       15.9994           0
     22839 TIP3     1830     TIP3     H1       HT       0.417000       1.00800           0
     22840 TIP3     1830     TIP3     H2       HT       0.417000       1.00800           0
     22841 TIP3     1831     TIP3     OH2      OT      -0.834000       15.9994           0
     22842 TIP3     1831     TIP3     H1       HT       0.417000       1.00800           0
     22843 TIP3     1831     TIP3     H2       HT       0.417000       1.00800           0
     22844 TIP3     1832     TIP3     OH2      OT      -0.834000       15.9994           0
     22845 TIP3     1832     TIP3     H1       HT       0.417000       1.00800           0
     22846 TIP3     1832     TIP3     H2       HT       0.417000       1.00800           0
     22847 TIP3     1833     TIP3     OH2      OT      -0.834000       15.9994           0
     22848 TIP3     1833     TIP3     H1       HT       0.417000       1.00800           0
     22849 TIP3     1833     TIP3     H2       HT       0.417000       1.00800           0
     22850 TIP3     1834     TIP3     OH2      OT      -0.834000       15.9994           0
     22851 TIP3     1834     TIP3     H1       HT       0.417000       1.00800           0
     22852 TIP3     1834     TIP3     H2       HT       0.417000       1.00800           0
     22853 TIP3     1835     TIP3     OH2      OT      -0.834000       15.9994           0
     22854 TIP3     1835     TIP3     H1       HT       0.417000       1.00800           0
     22855 TIP3     1835     TIP3     H2       HT       0.417000       1.00800           0
     22856 TIP3     1836     TIP3     OH2      OT      -0.834000       15.9994           0
     22857 TIP3     1836     TIP3     H1       HT       0.417000       1.00800           0
     22858 TIP3     1836     TIP3     H2       HT       0.417000       1.00800           0
     22859 TIP3     1837     TIP3     OH2      OT      -0.834000       15.9994           0
     22860 TIP3     1837     TIP3     H1       HT       0.417000       1.00800           0
     22861 TIP3     1837     TIP3     H2       HT       0.417000       1.00800           0
     22862 TIP3     1838     TIP3     OH2      OT      -0.834000       15.9994           0
     22863 TIP3     1838     TIP3     H1       HT       0.417000       1.00800           0
     22864 TIP3     1838     TIP3     H2       HT       0.417000       1.00800           0
     22865 TIP3     1839     TIP3     OH2      OT      -0.834000       15.9994           0
     22866 TIP3     1839     TIP3     H1       HT       0.417000       1.00800           0
     22867 TIP3     1839     TIP3     H2       HT       0.417000       1.00800           0
     22868 TIP3     1840     TIP3     OH2      OT      -0.834000       15.9994           0
     22869 TIP3     1840     TIP3     H1       HT       0.417000       1.00800           0
     22870 TIP3     1840     TIP3     H2       HT       0.417000       1.00800           0
     22871 TIP3     1841     TIP3     OH2      OT      -0.834000       15.9994           0
     22872 TIP3     1841     TIP3     H1       HT       0.417000       1.00800           0
     22873 TIP3     1841     TIP3     H2       HT       0.417000       1.00800           0
     22874 TIP3     1842     TIP3     OH2      OT      -0.834000       15.9994           0
     22875 TIP3     1842     TIP3     H1       HT       0.417000       1.00800           0
     22876 TIP3     1842     TIP3     H2       HT       0.417000       1.00800           0
     22877 TIP3     1843     TIP3     OH2      OT      -0.834000       15.9994           0
     22878 TIP3     1843     TIP3     H1       HT       0.417000       1.00800           0
     22879 TIP3     1843     TIP3     H2       HT       0.417000       1.00800           0
     22880 TIP3     1844     TIP3     OH2      OT      -0.834000       15.9994           0
     22881 TIP3     1844     TIP3     H1       HT       0.417000       1.00800           0
     22882 TIP3     1844     TIP3     H2       HT       0.417000       1.00800           0
     22883 TIP3     1845     TIP3     OH2      OT      -0.834000       15.9994           0
     22884 TIP3     1845     TIP3     H1       HT       0.417000       1.00800           0
     22885 TIP3     1845     TIP3     H2       HT       0.417000       1.00800           0
     22886 TIP3     1846     TIP3     OH2      OT      -0.834000       15.9994           0
     22887 TIP3     1846     TIP3     H1       HT       0.417000       1.00800           0
     22888 TIP3     1846     TIP3     H2       HT       0.417000       1.00800           0
     22889 TIP3     1847     TIP3     OH2      OT      -0.834000       15.9994           0
     22890 TIP3     1847     TIP3     H1       HT       0.417000       1.00800           0
     22891 TIP3     1847     TIP3     H2       HT       0.417000       1.00800           0
     22892 TIP3     1848     TIP3     OH2      OT      -0.834000       15.9994           0
     22893 TIP3     1848     TIP3     H1       HT       0.417000       1.00800           0
     22894 TIP3     1848     TIP3     H2       HT       0.417000       1.00800           0
     22895 TIP3     1849     TIP3     OH2      OT      -0.834000       15.9994           0
     22896 TIP3     1849     TIP3     H1       HT       0.417000       1.00800           0
     22897 TIP3     1849     TIP3     H2       HT       0.417000       1.00800           0
     22898 TIP3     1850     TIP3     OH2      OT      -0.834000       15.9994           0
     22899 TIP3     1850     TIP3     H1       HT       0.417000       1.00800           0
     22900 TIP3     1850     TIP3     H2       HT       0.417000       1.00800           0
     22901 TIP3     1851     TIP3     OH2      OT      -0.834000       15.9994           0
     22902 TIP3     1851     TIP3     H1       HT       0.417000       1.00800           0
     22903 TIP3     1851     TIP3     H2       HT       0.417000       1.00800           0
     22904 TIP3     1852     TIP3     OH2      OT      -0.834000       15.9994           0
     22905 TIP3     1852     TIP3     H1       HT       0.417000       1.00800           0
     22906 TIP3     1852     TIP3     H2       HT       0.417000       1.00800           0
     22907 TIP3     1853     TIP3     OH2      OT      -0.834000       15.9994           0
     22908 TIP3     1853     TIP3     H1       HT       0.417000       1.00800           0
     22909 TIP3     1853     TIP3     H2       HT       0.417000       1.00800           0
     22910 TIP3     1854     TIP3     OH2      OT      -0.834000       15.9994           0
     22911 TIP3     1854     TIP3     H1       HT       0.417000       1.00800           0
     22912 TIP3     1854     TIP3     H2       HT       0.417000       1.00800           0
     22913 TIP3     1855     TIP3     OH2      OT      -0.834000       15.9994           0
     22914 TIP3     1855     TIP3     H1       HT       0.417000       1.00800           0
     22915 TIP3     1855     TIP3     H2       HT       0.417000       1.00800           0
     22916 TIP3     1856     TIP3     OH2      OT      -0.834000       15.9994           0
     22917 TIP3     1856     TIP3     H1       HT       0.417000       1.00800           0
     22918 TIP3     1856     TIP3     H2       HT       0.417000       1.00800           0
     22919 TIP3     1857     TIP3     OH2      OT      -0.834000       15.9994           0
     22920 TIP3     1857     TIP3     H1       HT       0.417000       1.00800           0
     22921 TIP3     1857     TIP3     H2       HT       0.417000       1.00800           0
     22922 TIP3     1858     TIP3     OH2      OT      -0.834000       15.9994           0
     22923 TIP3     1858     TIP3     H1       HT       0.417000       1.00800           0
     22924 TIP3     1858     TIP3     H2       HT       0.417000       1.00800           0
     22925 TIP3     1859     TIP3     OH2      OT      -0.834000       15.9994           0
     22926 TIP3     1859     TIP3     H1       HT       0.417000       1.00800           0
     22927 TIP3     1859     TIP3     H2       HT       0.417000       1.00800           0
     22928 TIP3     1860     TIP3     OH2      OT      -0.834000       15.9994           0
     22929 TIP3     1860     TIP3     H1       HT       0.417000       1.00800           0
     22930 TIP3     1860     TIP3     H2       HT       0.417000       1.00800           0
     22931 TIP3     1861     TIP3     OH2      OT      -0.834000       15.9994           0
     22932 TIP3     1861     TIP3     H1       HT       0.417000       1.00800           0
     22933 TIP3     1861     TIP3     H2       HT       0.417000       1.00800           0
     22934 TIP3     1862     TIP3     OH2      OT      -0.834000       15.9994           0
     22935 TIP3     1862     TIP3     H1       HT       0.417000       1.00800           0
     22936 TIP3     1862     TIP3     H2       HT       0.417000       1.00800           0
     22937 TIP3     1863     TIP3     OH2      OT      -0.834000       15.9994           0
     22938 TIP3     1863     TIP3     H1       HT       0.417000       1.00800           0
     22939 TIP3     1863     TIP3     H2       HT       0.417000       1.00800           0
     22940 TIP3     1864     TIP3     OH2      OT      -0.834000       15.9994           0
     22941 TIP3     1864     TIP3     H1       HT       0.417000       1.00800           0
     22942 TIP3     1864     TIP3     H2       HT       0.417000       1.00800           0
     22943 TIP3     1865     TIP3     OH2      OT      -0.834000       15.9994           0
     22944 TIP3     1865     TIP3     H1       HT       0.417000       1.00800           0
     22945 TIP3     1865     TIP3     H2       HT       0.417000       1.00800           0
     22946 TIP3     1866     TIP3     OH2      OT      -0.834000       15.9994           0
     22947 TIP3     1866     TIP3     H1       HT       0.417000       1.00800           0
     22948 TIP3     1866     TIP3     H2       HT       0.417000       1.00800           0
     22949 TIP3     1867     TIP3     OH2      OT      -0.834000       15.9994           0
     22950 TIP3     1867     TIP3     H1       HT       0.417000       1.00800           0
     22951 TIP3     1867     TIP3     H2       HT       0.417000       1.00800           0
     22952 TIP3     1868     TIP3     OH2      OT      -0.834000       15.9994           0
     22953 TIP3     1868     TIP3     H1       HT       0.417000       1.00800           0
     22954 TIP3     1868     TIP3     H2       HT       0.417000       1.00800           0
     22955 TIP3     1869     TIP3     OH2      OT      -0.834000       15.9994           0
     22956 TIP3     1869     TIP3     H1       HT       0.417000       1.00800           0
     22957 TIP3     1869     TIP3     H2       HT       0.417000       1.00800           0
     22958 TIP3     1870     TIP3     OH2      OT      -0.834000       15.9994           0
     22959 TIP3     1870     TIP3     H1       HT       0.417000       1.00800           0
     22960 TIP3     1870     TIP3     H2       HT       0.417000       1.00800           0
     22961 TIP3     1871     TIP3     OH2      OT      -0.834000       15.9994           0
     22962 TIP3     1871     TIP3     H1       HT       0.417000       1.00800           0
     22963 TIP3     1871     TIP3     H2       HT       0.417000       1.00800           0
     22964 TIP3     1872     TIP3     OH2      OT      -0.834000       15.9994           0
     22965 TIP3     1872     TIP3     H1       HT       0.417000       1.00800           0
     22966 TIP3     1872     TIP3     H2       HT       0.417000       1.00800           0
     22967 TIP3     1873     TIP3     OH2      OT      -0.834000       15.9994           0
     22968 TIP3     1873     TIP3     H1       HT       0.417000       1.00800           0
     22969 TIP3     1873     TIP3     H2       HT       0.417000       1.00800           0
     22970 TIP3     1874     TIP3     OH2      OT      -0.834000       15.9994           0
     22971 TIP3     1874     TIP3     H1       HT       0.417000       1.00800           0
     22972 TIP3     1874     TIP3     H2       HT       0.417000       1.00800           0
     22973 TIP3     1875     TIP3     OH2      OT      -0.834000       15.9994           0
     22974 TIP3     1875     TIP3     H1       HT       0.417000       1.00800           0
     22975 TIP3     1875     TIP3     H2       HT       0.417000       1.00800           0
     22976 TIP3     1876     TIP3     OH2      OT      -0.834000       15.9994           0
     22977 TIP3     1876     TIP3     H1       HT       0.417000       1.00800           0
     22978 TIP3     1876     TIP3     H2       HT       0.417000       1.00800           0
     22979 TIP3     1877     TIP3     OH2      OT      -0.834000       15.9994           0
     22980 TIP3     1877     TIP3     H1       HT       0.417000       1.00800           0
     22981 TIP3     1877     TIP3     H2       HT       0.417000       1.00800           0
     22982 TIP3     1878     TIP3     OH2      OT      -0.834000       15.9994           0
     22983 TIP3     1878     TIP3     H1       HT       0.417000       1.00800           0
     22984 TIP3     1878     TIP3     H2       HT       0.417000       1.00800           0
     22985 TIP3     1879     TIP3     OH2      OT      -0.834000       15.9994           0
     22986 TIP3     1879     TIP3     H1       HT       0.417000       1.00800           0
     22987 TIP3     1879     TIP3     H2       HT       0.417000       1.00800           0
     22988 TIP3     1880     TIP3     OH2      OT      -0.834000       15.9994           0
     22989 TIP3     1880     TIP3     H1       HT       0.417000       1.00800           0
     22990 TIP3     1880     TIP3     H2       HT       0.417000       1.00800           0
     22991 TIP3     1881     TIP3     OH2      OT      -0.834000       15.9994           0
     22992 TIP3     1881     TIP3     H1       HT       0.417000       1.00800           0
     22993 TIP3     1881     TIP3     H2       HT       0.417000       1.00800           0
     22994 TIP3     1882     TIP3     OH2      OT      -0.834000       15.9994           0
     22995 TIP3     1882     TIP3     H1       HT       0.417000       1.00800           0
     22996 TIP3     1882     TIP3     H2       HT       0.417000       1.00800           0
     22997 TIP3     1883     TIP3     OH2      OT      -0.834000       15.9994           0
     22998 TIP3     1883     TIP3     H1       HT       0.417000       1.00800           0
     22999 TIP3     1883     TIP3     H2       HT       0.417000       1.00800           0
     23000 TIP3     1884     TIP3     OH2      OT      -0.834000       15.9994           0
     23001 TIP3     1884     TIP3     H1       HT       0.417000       1.00800           0
     23002 TIP3     1884     TIP3     H2       HT       0.417000       1.00800           0
     23003 TIP3     1885     TIP3     OH2      OT      -0.834000       15.9994           0
     23004 TIP3     1885     TIP3     H1       HT       0.417000       1.00800           0
     23005 TIP3     1885     TIP3     H2       HT       0.417000       1.00800           0
     23006 TIP3     1886     TIP3     OH2      OT      -0.834000       15.9994           0
     23007 TIP3     1886     TIP3     H1       HT       0.417000       1.00800           0
     23008 TIP3     1886     TIP3     H2       HT       0.417000       1.00800           0
     23009 TIP3     1887     TIP3     OH2      OT      -0.834000       15.9994           0
     23010 TIP3     1887     TIP3     H1       HT       0.417000       1.00800           0
     23011 TIP3     1887     TIP3     H2       HT       0.417000       1.00800           0
     23012 TIP3     1888     TIP3     OH2      OT      -0.834000       15.9994           0
     23013 TIP3     1888     TIP3     H1       HT       0.417000       1.00800           0
     23014 TIP3     1888     TIP3     H2       HT       0.417000       1.00800           0
     23015 TIP3     1889     TIP3     OH2      OT      -0.834000       15.9994           0
     23016 TIP3     1889     TIP3     H1       HT       0.417000       1.00800           0
     23017 TIP3     1889     TIP3     H2       HT       0.417000       1.00800           0
     23018 TIP3     1890     TIP3     OH2      OT      -0.834000       15.9994           0
     23019 TIP3     1890     TIP3     H1       HT       0.417000       1.00800           0
     23020 TIP3     1890     TIP3     H2       HT       0.417000       1.00800           0
     23021 TIP3     1891     TIP3     OH2      OT      -0.834000       15.9994           0
     23022 TIP3     1891     TIP3     H1       HT       0.417000       1.00800           0
     23023 TIP3     1891     TIP3     H2       HT       0.417000       1.00800           0
     23024 TIP3     1892     TIP3     OH2      OT      -0.834000       15.9994           0
     23025 TIP3     1892     TIP3     H1       HT       0.417000       1.00800           0
     23026 TIP3     1892     TIP3     H2       HT       0.417000       1.00800           0
     23027 TIP3     1893     TIP3     OH2      OT      -0.834000       15.9994           0
     23028 TIP3     1893     TIP3     H1       HT       0.417000       1.00800           0
     23029 TIP3     1893     TIP3     H2       HT       0.417000       1.00800           0
     23030 TIP3     1894     TIP3     OH2      OT      -0.834000       15.9994           0
     23031 TIP3     1894     TIP3     H1       HT       0.417000       1.00800           0
     23032 TIP3     1894     TIP3     H2       HT       0.417000       1.00800           0
     23033 TIP3     1895     TIP3     OH2      OT      -0.834000       15.9994           0
     23034 TIP3     1895     TIP3     H1       HT       0.417000       1.00800           0
     23035 TIP3     1895     TIP3     H2       HT       0.417000       1.00800           0
     23036 TIP3     1896     TIP3     OH2      OT      -0.834000       15.9994           0
     23037 TIP3     1896     TIP3     H1       HT       0.417000       1.00800           0
     23038 TIP3     1896     TIP3     H2       HT       0.417000       1.00800           0
     23039 TIP3     1897     TIP3     OH2      OT      -0.834000       15.9994           0
     23040 TIP3     1897     TIP3     H1       HT       0.417000       1.00800           0
     23041 TIP3     1897     TIP3     H2       HT       0.417000       1.00800           0
     23042 TIP3     1898     TIP3     OH2      OT      -0.834000       15.9994           0
     23043 TIP3     1898     TIP3     H1       HT       0.417000       1.00800           0
     23044 TIP3     1898     TIP3     H2       HT       0.417000       1.00800           0
     23045 TIP3     1899     TIP3     OH2      OT      -0.834000       15.9994           0
     23046 TIP3     1899     TIP3     H1       HT       0.417000       1.00800           0
     23047 TIP3     1899     TIP3     H2       HT       0.417000       1.00800           0
     23048 TIP3     1900     TIP3     OH2      OT      -0.834000       15.9994           0
     23049 TIP3     1900     TIP3     H1       HT       0.417000       1.00800           0
     23050 TIP3     1900     TIP3     H2       HT       0.417000       1.00800           0
     23051 TIP3     1901     TIP3     OH2      OT      -0.834000       15.9994           0
     23052 TIP3     1901     TIP3     H1       HT       0.417000       1.00800           0
     23053 TIP3     1901     TIP3     H2       HT       0.417000       1.00800           0
     23054 TIP3     1902     TIP3     OH2      OT      -0.834000       15.9994           0
     23055 TIP3     1902     TIP3     H1       HT       0.417000       1.00800           0
     23056 TIP3     1902     TIP3     H2       HT       0.417000       1.00800           0
     23057 TIP3     1903     TIP3     OH2      OT      -0.834000       15.9994           0
     23058 TIP3     1903     TIP3     H1       HT       0.417000       1.00800           0
     23059 TIP3     1903     TIP3     H2       HT       0.417000       1.00800           0
     23060 TIP3     1904     TIP3     OH2      OT      -0.834000       15.9994           0
     23061 TIP3     1904     TIP3     H1       HT       0.417000       1.00800           0
     23062 TIP3     1904     TIP3     H2       HT       0.417000       1.00800           0
     23063 TIP3     1905     TIP3     OH2      OT      -0.834000       15.9994           0
     23064 TIP3     1905     TIP3     H1       HT       0.417000       1.00800           0
     23065 TIP3     1905     TIP3     H2       HT       0.417000       1.00800           0
     23066 TIP3     1906     TIP3     OH2      OT      -0.834000       15.9994           0
     23067 TIP3     1906     TIP3     H1       HT       0.417000       1.00800           0
     23068 TIP3     1906     TIP3     H2       HT       0.417000       1.00800           0
     23069 TIP3     1907     TIP3     OH2      OT      -0.834000       15.9994           0
     23070 TIP3     1907     TIP3     H1       HT       0.417000       1.00800           0
     23071 TIP3     1907     TIP3     H2       HT       0.417000       1.00800           0
     23072 TIP3     1908     TIP3     OH2      OT      -0.834000       15.9994           0
     23073 TIP3     1908     TIP3     H1       HT       0.417000       1.00800           0
     23074 TIP3     1908     TIP3     H2       HT       0.417000       1.00800           0
     23075 TIP3     1909     TIP3     OH2      OT      -0.834000       15.9994           0
     23076 TIP3     1909     TIP3     H1       HT       0.417000       1.00800           0
     23077 TIP3     1909     TIP3     H2       HT       0.417000       1.00800           0
     23078 TIP3     1910     TIP3     OH2      OT      -0.834000       15.9994           0
     23079 TIP3     1910     TIP3     H1       HT       0.417000       1.00800           0
     23080 TIP3     1910     TIP3     H2       HT       0.417000       1.00800           0
     23081 TIP3     1911     TIP3     OH2      OT      -0.834000       15.9994           0
     23082 TIP3     1911     TIP3     H1       HT       0.417000       1.00800           0
     23083 TIP3     1911     TIP3     H2       HT       0.417000       1.00800           0
     23084 TIP3     1912     TIP3     OH2      OT      -0.834000       15.9994           0
     23085 TIP3     1912     TIP3     H1       HT       0.417000       1.00800           0
     23086 TIP3     1912     TIP3     H2       HT       0.417000       1.00800           0
     23087 TIP3     1913     TIP3     OH2      OT      -0.834000       15.9994           0
     23088 TIP3     1913     TIP3     H1       HT       0.417000       1.00800           0
     23089 TIP3     1913     TIP3     H2       HT       0.417000       1.00800           0
     23090 TIP3     1914     TIP3     OH2      OT      -0.834000       15.9994           0
     23091 TIP3     1914     TIP3     H1       HT       0.417000       1.00800           0
     23092 TIP3     1914     TIP3     H2       HT       0.417000       1.00800           0
     23093 TIP3     1915     TIP3     OH2      OT      -0.834000       15.9994           0
     23094 TIP3     1915     TIP3     H1       HT       0.417000       1.00800           0
     23095 TIP3     1915     TIP3     H2       HT       0.417000       1.00800           0
     23096 TIP3     1916     TIP3     OH2      OT      -0.834000       15.9994           0
     23097 TIP3     1916     TIP3     H1       HT       0.417000       1.00800           0
     23098 TIP3     1916     TIP3     H2       HT       0.417000       1.00800           0
     23099 TIP3     1917     TIP3     OH2      OT      -0.834000       15.9994           0
     23100 TIP3     1917     TIP3     H1       HT       0.417000       1.00800           0
     23101 TIP3     1917     TIP3     H2       HT       0.417000       1.00800           0
     23102 TIP3     1918     TIP3     OH2      OT      -0.834000       15.9994           0
     23103 TIP3     1918     TIP3     H1       HT       0.417000       1.00800           0
     23104 TIP3     1918     TIP3     H2       HT       0.417000       1.00800           0
     23105 TIP3     1919     TIP3     OH2      OT      -0.834000       15.9994           0
     23106 TIP3     1919     TIP3     H1       HT       0.417000       1.00800           0
     23107 TIP3     1919     TIP3     H2       HT       0.417000       1.00800           0
     23108 TIP3     1920     TIP3     OH2      OT      -0.834000       15.9994           0
     23109 TIP3     1920     TIP3     H1       HT       0.417000       1.00800           0
     23110 TIP3     1920     TIP3     H2       HT       0.417000       1.00800           0
     23111 TIP3     1921     TIP3     OH2      OT      -0.834000       15.9994           0
     23112 TIP3     1921     TIP3     H1       HT       0.417000       1.00800           0
     23113 TIP3     1921     TIP3     H2       HT       0.417000       1.00800           0
     23114 TIP3     1922     TIP3     OH2      OT      -0.834000       15.9994           0
     23115 TIP3     1922     TIP3     H1       HT       0.417000       1.00800           0
     23116 TIP3     1922     TIP3     H2       HT       0.417000       1.00800           0
     23117 TIP3     1923     TIP3     OH2      OT      -0.834000       15.9994           0
     23118 TIP3     1923     TIP3     H1       HT       0.417000       1.00800           0
     23119 TIP3     1923     TIP3     H2       HT       0.417000       1.00800           0
     23120 TIP3     1924     TIP3     OH2      OT      -0.834000       15.9994           0
     23121 TIP3     1924     TIP3     H1       HT       0.417000       1.00800           0
     23122 TIP3     1924     TIP3     H2       HT       0.417000       1.00800           0
     23123 TIP3     1925     TIP3     OH2      OT      -0.834000       15.9994           0
     23124 TIP3     1925     TIP3     H1       HT       0.417000       1.00800           0
     23125 TIP3     1925     TIP3     H2       HT       0.417000       1.00800           0
     23126 TIP3     1926     TIP3     OH2      OT      -0.834000       15.9994           0
     23127 TIP3     1926     TIP3     H1       HT       0.417000       1.00800           0
     23128 TIP3     1926     TIP3     H2       HT       0.417000       1.00800           0
     23129 TIP3     1927     TIP3     OH2      OT      -0.834000       15.9994           0
     23130 TIP3     1927     TIP3     H1       HT       0.417000       1.00800           0
     23131 TIP3     1927     TIP3     H2       HT       0.417000       1.00800           0
     23132 TIP3     1928     TIP3     OH2      OT      -0.834000       15.9994           0
     23133 TIP3     1928     TIP3     H1       HT       0.417000       1.00800           0
     23134 TIP3     1928     TIP3     H2       HT       0.417000       1.00800           0
     23135 TIP3     1929     TIP3     OH2      OT      -0.834000       15.9994           0
     23136 TIP3     1929     TIP3     H1       HT       0.417000       1.00800           0
     23137 TIP3     1929     TIP3     H2       HT       0.417000       1.00800           0
     23138 TIP3     1930     TIP3     OH2      OT      -0.834000       15.9994           0
     23139 TIP3     1930     TIP3     H1       HT       0.417000       1.00800           0
     23140 TIP3     1930     TIP3     H2       HT       0.417000       1.00800           0
     23141 TIP3     1931     TIP3     OH2      OT      -0.834000       15.9994           0
     23142 TIP3     1931     TIP3     H1       HT       0.417000       1.00800           0
     23143 TIP3     1931     TIP3     H2       HT       0.417000       1.00800           0
     23144 TIP3     1932     TIP3     OH2      OT      -0.834000       15.9994           0
     23145 TIP3     1932     TIP3     H1       HT       0.417000       1.00800           0
     23146 TIP3     1932     TIP3     H2       HT       0.417000       1.00800           0
     23147 TIP3     1933     TIP3     OH2      OT      -0.834000       15.9994           0
     23148 TIP3     1933     TIP3     H1       HT       0.417000       1.00800           0
     23149 TIP3     1933     TIP3     H2       HT       0.417000       1.00800           0
     23150 TIP3     1934     TIP3     OH2      OT      -0.834000       15.9994           0
     23151 TIP3     1934     TIP3     H1       HT       0.417000       1.00800           0
     23152 TIP3     1934     TIP3     H2       HT       0.417000       1.00800           0
     23153 TIP3     1935     TIP3     OH2      OT      -0.834000       15.9994           0
     23154 TIP3     1935     TIP3     H1       HT       0.417000       1.00800           0
     23155 TIP3     1935     TIP3     H2       HT       0.417000       1.00800           0
     23156 TIP3     1936     TIP3     OH2      OT      -0.834000       15.9994           0
     23157 TIP3     1936     TIP3     H1       HT       0.417000       1.00800           0
     23158 TIP3     1936     TIP3     H2       HT       0.417000       1.00800           0
     23159 TIP3     1937     TIP3     OH2      OT      -0.834000       15.9994           0
     23160 TIP3     1937     TIP3     H1       HT       0.417000       1.00800           0
     23161 TIP3     1937     TIP3     H2       HT       0.417000       1.00800           0
     23162 TIP3     1938     TIP3     OH2      OT      -0.834000       15.9994           0
     23163 TIP3     1938     TIP3     H1       HT       0.417000       1.00800           0
     23164 TIP3     1938     TIP3     H2       HT       0.417000       1.00800           0
     23165 TIP3     1939     TIP3     OH2      OT      -0.834000       15.9994           0
     23166 TIP3     1939     TIP3     H1       HT       0.417000       1.00800           0
     23167 TIP3     1939     TIP3     H2       HT       0.417000       1.00800           0
     23168 TIP3     1940     TIP3     OH2      OT      -0.834000       15.9994           0
     23169 TIP3     1940     TIP3     H1       HT       0.417000       1.00800           0
     23170 TIP3     1940     TIP3     H2       HT       0.417000       1.00800           0
     23171 TIP3     1941     TIP3     OH2      OT      -0.834000       15.9994           0
     23172 TIP3     1941     TIP3     H1       HT       0.417000       1.00800           0
     23173 TIP3     1941     TIP3     H2       HT       0.417000       1.00800           0
     23174 TIP3     1942     TIP3     OH2      OT      -0.834000       15.9994           0
     23175 TIP3     1942     TIP3     H1       HT       0.417000       1.00800           0
     23176 TIP3     1942     TIP3     H2       HT       0.417000       1.00800           0
     23177 TIP3     1943     TIP3     OH2      OT      -0.834000       15.9994           0
     23178 TIP3     1943     TIP3     H1       HT       0.417000       1.00800           0
     23179 TIP3     1943     TIP3     H2       HT       0.417000       1.00800           0
     23180 TIP3     1944     TIP3     OH2      OT      -0.834000       15.9994           0
     23181 TIP3     1944     TIP3     H1       HT       0.417000       1.00800           0
     23182 TIP3     1944     TIP3     H2       HT       0.417000       1.00800           0
     23183 TIP3     1945     TIP3     OH2      OT      -0.834000       15.9994           0
     23184 TIP3     1945     TIP3     H1       HT       0.417000       1.00800           0
     23185 TIP3     1945     TIP3     H2       HT       0.417000       1.00800           0
     23186 TIP3     1946     TIP3     OH2      OT      -0.834000       15.9994           0
     23187 TIP3     1946     TIP3     H1       HT       0.417000       1.00800           0
     23188 TIP3     1946     TIP3     H2       HT       0.417000       1.00800           0
     23189 TIP3     1947     TIP3     OH2      OT      -0.834000       15.9994           0
     23190 TIP3     1947     TIP3     H1       HT       0.417000       1.00800           0
     23191 TIP3     1947     TIP3     H2       HT       0.417000       1.00800           0
     23192 TIP3     1948     TIP3     OH2      OT      -0.834000       15.9994           0
     23193 TIP3     1948     TIP3     H1       HT       0.417000       1.00800           0
     23194 TIP3     1948     TIP3     H2       HT       0.417000       1.00800           0
     23195 TIP3     1949     TIP3     OH2      OT      -0.834000       15.9994           0
     23196 TIP3     1949     TIP3     H1       HT       0.417000       1.00800           0
     23197 TIP3     1949     TIP3     H2       HT       0.417000       1.00800           0
     23198 TIP3     1950     TIP3     OH2      OT      -0.834000       15.9994           0
     23199 TIP3     1950     TIP3     H1       HT       0.417000       1.00800           0
     23200 TIP3     1950     TIP3     H2       HT       0.417000       1.00800           0
     23201 TIP3     1951     TIP3     OH2      OT      -0.834000       15.9994           0
     23202 TIP3     1951     TIP3     H1       HT       0.417000       1.00800           0
     23203 TIP3     1951     TIP3     H2       HT       0.417000       1.00800           0
     23204 TIP3     1952     TIP3     OH2      OT      -0.834000       15.9994           0
     23205 TIP3     1952     TIP3     H1       HT       0.417000       1.00800           0
     23206 TIP3     1952     TIP3     H2       HT       0.417000       1.00800           0
     23207 TIP3     1953     TIP3     OH2      OT      -0.834000       15.9994           0
     23208 TIP3     1953     TIP3     H1       HT       0.417000       1.00800           0
     23209 TIP3     1953     TIP3     H2       HT       0.417000       1.00800           0
     23210 TIP3     1954     TIP3     OH2      OT      -0.834000       15.9994           0
     23211 TIP3     1954     TIP3     H1       HT       0.417000       1.00800           0
     23212 TIP3     1954     TIP3     H2       HT       0.417000       1.00800           0
     23213 TIP3     1955     TIP3     OH2      OT      -0.834000       15.9994           0
     23214 TIP3     1955     TIP3     H1       HT       0.417000       1.00800           0
     23215 TIP3     1955     TIP3     H2       HT       0.417000       1.00800           0
     23216 TIP3     1956     TIP3     OH2      OT      -0.834000       15.9994           0
     23217 TIP3     1956     TIP3     H1       HT       0.417000       1.00800           0
     23218 TIP3     1956     TIP3     H2       HT       0.417000       1.00800           0
     23219 TIP3     1957     TIP3     OH2      OT      -0.834000       15.9994           0
     23220 TIP3     1957     TIP3     H1       HT       0.417000       1.00800           0
     23221 TIP3     1957     TIP3     H2       HT       0.417000       1.00800           0
     23222 TIP3     1958     TIP3     OH2      OT      -0.834000       15.9994           0
     23223 TIP3     1958     TIP3     H1       HT       0.417000       1.00800           0
     23224 TIP3     1958     TIP3     H2       HT       0.417000       1.00800           0
     23225 TIP3     1959     TIP3     OH2      OT      -0.834000       15.9994           0
     23226 TIP3     1959     TIP3     H1       HT       0.417000       1.00800           0
     23227 TIP3     1959     TIP3     H2       HT       0.417000       1.00800           0
     23228 TIP3     1960     TIP3     OH2      OT      -0.834000       15.9994           0
     23229 TIP3     1960     TIP3     H1       HT       0.417000       1.00800           0
     23230 TIP3     1960     TIP3     H2       HT       0.417000       1.00800           0
     23231 TIP3     1961     TIP3     OH2      OT      -0.834000       15.9994           0
     23232 TIP3     1961     TIP3     H1       HT       0.417000       1.00800           0
     23233 TIP3     1961     TIP3     H2       HT       0.417000       1.00800           0
     23234 TIP3     1962     TIP3     OH2      OT      -0.834000       15.9994           0
     23235 TIP3     1962     TIP3     H1       HT       0.417000       1.00800           0
     23236 TIP3     1962     TIP3     H2       HT       0.417000       1.00800           0
     23237 TIP3     1963     TIP3     OH2      OT      -0.834000       15.9994           0
     23238 TIP3     1963     TIP3     H1       HT       0.417000       1.00800           0
     23239 TIP3     1963     TIP3     H2       HT       0.417000       1.00800           0
     23240 TIP3     1964     TIP3     OH2      OT      -0.834000       15.9994           0
     23241 TIP3     1964     TIP3     H1       HT       0.417000       1.00800           0
     23242 TIP3     1964     TIP3     H2       HT       0.417000       1.00800           0
     23243 TIP3     1965     TIP3     OH2      OT      -0.834000       15.9994           0
     23244 TIP3     1965     TIP3     H1       HT       0.417000       1.00800           0
     23245 TIP3     1965     TIP3     H2       HT       0.417000       1.00800           0
     23246 TIP3     1966     TIP3     OH2      OT      -0.834000       15.9994           0
     23247 TIP3     1966     TIP3     H1       HT       0.417000       1.00800           0
     23248 TIP3     1966     TIP3     H2       HT       0.417000       1.00800           0
     23249 TIP3     1967     TIP3     OH2      OT      -0.834000       15.9994           0
     23250 TIP3     1967     TIP3     H1       HT       0.417000       1.00800           0
     23251 TIP3     1967     TIP3     H2       HT       0.417000       1.00800           0
     23252 TIP3     1968     TIP3     OH2      OT      -0.834000       15.9994           0
     23253 TIP3     1968     TIP3     H1       HT       0.417000       1.00800           0
     23254 TIP3     1968     TIP3     H2       HT       0.417000       1.00800           0
     23255 TIP3     1969     TIP3     OH2      OT      -0.834000       15.9994           0
     23256 TIP3     1969     TIP3     H1       HT       0.417000       1.00800           0
     23257 TIP3     1969     TIP3     H2       HT       0.417000       1.00800           0
     23258 TIP3     1970     TIP3     OH2      OT      -0.834000       15.9994           0
     23259 TIP3     1970     TIP3     H1       HT       0.417000       1.00800           0
     23260 TIP3     1970     TIP3     H2       HT       0.417000       1.00800           0
     23261 TIP3     1971     TIP3     OH2      OT      -0.834000       15.9994           0
     23262 TIP3     1971     TIP3     H1       HT       0.417000       1.00800           0
     23263 TIP3     1971     TIP3     H2       HT       0.417000       1.00800           0
     23264 TIP3     1972     TIP3     OH2      OT      -0.834000       15.9994           0
     23265 TIP3     1972     TIP3     H1       HT       0.417000       1.00800           0
     23266 TIP3     1972     TIP3     H2       HT       0.417000       1.00800           0
     23267 TIP3     1973     TIP3     OH2      OT      -0.834000       15.9994           0
     23268 TIP3     1973     TIP3     H1       HT       0.417000       1.00800           0
     23269 TIP3     1973     TIP3     H2       HT       0.417000       1.00800           0
     23270 TIP3     1974     TIP3     OH2      OT      -0.834000       15.9994           0
     23271 TIP3     1974     TIP3     H1       HT       0.417000       1.00800           0
     23272 TIP3     1974     TIP3     H2       HT       0.417000       1.00800           0
     23273 TIP3     1975     TIP3     OH2      OT      -0.834000       15.9994           0
     23274 TIP3     1975     TIP3     H1       HT       0.417000       1.00800           0
     23275 TIP3     1975     TIP3     H2       HT       0.417000       1.00800           0
     23276 TIP3     1976     TIP3     OH2      OT      -0.834000       15.9994           0
     23277 TIP3     1976     TIP3     H1       HT       0.417000       1.00800           0
     23278 TIP3     1976     TIP3     H2       HT       0.417000       1.00800           0
     23279 TIP3     1977     TIP3     OH2      OT      -0.834000       15.9994           0
     23280 TIP3     1977     TIP3     H1       HT       0.417000       1.00800           0
     23281 TIP3     1977     TIP3     H2       HT       0.417000       1.00800           0
     23282 TIP3     1978     TIP3     OH2      OT      -0.834000       15.9994           0
     23283 TIP3     1978     TIP3     H1       HT       0.417000       1.00800           0
     23284 TIP3     1978     TIP3     H2       HT       0.417000       1.00800           0
     23285 TIP3     1979     TIP3     OH2      OT      -0.834000       15.9994           0
     23286 TIP3     1979     TIP3     H1       HT       0.417000       1.00800           0
     23287 TIP3     1979     TIP3     H2       HT       0.417000       1.00800           0
     23288 TIP3     1980     TIP3     OH2      OT      -0.834000       15.9994           0
     23289 TIP3     1980     TIP3     H1       HT       0.417000       1.00800           0
     23290 TIP3     1980     TIP3     H2       HT       0.417000       1.00800           0
     23291 TIP3     1981     TIP3     OH2      OT      -0.834000       15.9994           0
     23292 TIP3     1981     TIP3     H1       HT       0.417000       1.00800           0
     23293 TIP3     1981     TIP3     H2       HT       0.417000       1.00800           0
     23294 TIP3     1982     TIP3     OH2      OT      -0.834000       15.9994           0
     23295 TIP3     1982     TIP3     H1       HT       0.417000       1.00800           0
     23296 TIP3     1982     TIP3     H2       HT       0.417000       1.00800           0
     23297 TIP3     1983     TIP3     OH2      OT      -0.834000       15.9994           0
     23298 TIP3     1983     TIP3     H1       HT       0.417000       1.00800           0
     23299 TIP3     1983     TIP3     H2       HT       0.417000       1.00800           0
     23300 TIP3     1984     TIP3     OH2      OT      -0.834000       15.9994           0
     23301 TIP3     1984     TIP3     H1       HT       0.417000       1.00800           0
     23302 TIP3     1984     TIP3     H2       HT       0.417000       1.00800           0
     23303 TIP3     1985     TIP3     OH2      OT      -0.834000       15.9994           0
     23304 TIP3     1985     TIP3     H1       HT       0.417000       1.00800           0
     23305 TIP3     1985     TIP3     H2       HT       0.417000       1.00800           0
     23306 TIP3     1986     TIP3     OH2      OT      -0.834000       15.9994           0
     23307 TIP3     1986     TIP3     H1       HT       0.417000       1.00800           0
     23308 TIP3     1986     TIP3     H2       HT       0.417000       1.00800           0
     23309 TIP3     1987     TIP3     OH2      OT      -0.834000       15.9994           0
     23310 TIP3     1987     TIP3     H1       HT       0.417000       1.00800           0
     23311 TIP3     1987     TIP3     H2       HT       0.417000       1.00800           0
     23312 TIP3     1988     TIP3     OH2      OT      -0.834000       15.9994           0
     23313 TIP3     1988     TIP3     H1       HT       0.417000       1.00800           0
     23314 TIP3     1988     TIP3     H2       HT       0.417000       1.00800           0
     23315 TIP3     1989     TIP3     OH2      OT      -0.834000       15.9994           0
     23316 TIP3     1989     TIP3     H1       HT       0.417000       1.00800           0
     23317 TIP3     1989     TIP3     H2       HT       0.417000       1.00800           0
     23318 TIP3     1990     TIP3     OH2      OT      -0.834000       15.9994           0
     23319 TIP3     1990     TIP3     H1       HT       0.417000       1.00800           0
     23320 TIP3     1990     TIP3     H2       HT       0.417000       1.00800           0
     23321 TIP3     1991     TIP3     OH2      OT      -0.834000       15.9994           0
     23322 TIP3     1991     TIP3     H1       HT       0.417000       1.00800           0
     23323 TIP3     1991     TIP3     H2       HT       0.417000       1.00800           0
     23324 TIP3     1992     TIP3     OH2      OT      -0.834000       15.9994           0
     23325 TIP3     1992     TIP3     H1       HT       0.417000       1.00800           0
     23326 TIP3     1992     TIP3     H2       HT       0.417000       1.00800           0
     23327 TIP3     1993     TIP3     OH2      OT      -0.834000       15.9994           0
     23328 TIP3     1993     TIP3     H1       HT       0.417000       1.00800           0
     23329 TIP3     1993     TIP3     H2       HT       0.417000       1.00800           0
     23330 TIP3     1994     TIP3     OH2      OT      -0.834000       15.9994           0
     23331 TIP3     1994     TIP3     H1       HT       0.417000       1.00800           0
     23332 TIP3     1994     TIP3     H2       HT       0.417000       1.00800           0
     23333 TIP3     1995     TIP3     OH2      OT      -0.834000       15.9994           0
     23334 TIP3     1995     TIP3     H1       HT       0.417000       1.00800           0
     23335 TIP3     1995     TIP3     H2       HT       0.417000       1.00800           0
     23336 TIP3     1996     TIP3     OH2      OT      -0.834000       15.9994           0
     23337 TIP3     1996     TIP3     H1       HT       0.417000       1.00800           0
     23338 TIP3     1996     TIP3     H2       HT       0.417000       1.00800           0
     23339 TIP3     1997     TIP3     OH2      OT      -0.834000       15.9994           0
     23340 TIP3     1997     TIP3     H1       HT       0.417000       1.00800           0
     23341 TIP3     1997     TIP3     H2       HT       0.417000       1.00800           0
     23342 TIP3     1998     TIP3     OH2      OT      -0.834000       15.9994           0
     23343 TIP3     1998     TIP3     H1       HT       0.417000       1.00800           0
     23344 TIP3     1998     TIP3     H2       HT       0.417000       1.00800           0
     23345 TIP3     1999     TIP3     OH2      OT      -0.834000       15.9994           0
     23346 TIP3     1999     TIP3     H1       HT       0.417000       1.00800           0
     23347 TIP3     1999     TIP3     H2       HT       0.417000       1.00800           0
     23348 TIP3     2000     TIP3     OH2      OT      -0.834000       15.9994           0
     23349 TIP3     2000     TIP3     H1       HT       0.417000       1.00800           0
     23350 TIP3     2000     TIP3     H2       HT       0.417000       1.00800           0
     23351 TIP3     2001     TIP3     OH2      OT      -0.834000       15.9994           0
     23352 TIP3     2001     TIP3     H1       HT       0.417000       1.00800           0
     23353 TIP3     2001     TIP3     H2       HT       0.417000       1.00800           0
     23354 TIP3     2002     TIP3     OH2      OT      -0.834000       15.9994           0
     23355 TIP3     2002     TIP3     H1       HT       0.417000       1.00800           0
     23356 TIP3     2002     TIP3     H2       HT       0.417000       1.00800           0
     23357 TIP3     2003     TIP3     OH2      OT      -0.834000       15.9994           0
     23358 TIP3     2003     TIP3     H1       HT       0.417000       1.00800           0
     23359 TIP3     2003     TIP3     H2       HT       0.417000       1.00800           0
     23360 TIP3     2004     TIP3     OH2      OT      -0.834000       15.9994           0
     23361 TIP3     2004     TIP3     H1       HT       0.417000       1.00800           0
     23362 TIP3     2004     TIP3     H2       HT       0.417000       1.00800           0
     23363 TIP3     2005     TIP3     OH2      OT      -0.834000       15.9994           0
     23364 TIP3     2005     TIP3     H1       HT       0.417000       1.00800           0
     23365 TIP3     2005     TIP3     H2       HT       0.417000       1.00800           0
     23366 TIP3     2006     TIP3     OH2      OT      -0.834000       15.9994           0
     23367 TIP3     2006     TIP3     H1       HT       0.417000       1.00800           0
     23368 TIP3     2006     TIP3     H2       HT       0.417000       1.00800           0
     23369 TIP3     2007     TIP3     OH2      OT      -0.834000       15.9994           0
     23370 TIP3     2007     TIP3     H1       HT       0.417000       1.00800           0
     23371 TIP3     2007     TIP3     H2       HT       0.417000       1.00800           0
     23372 TIP3     2008     TIP3     OH2      OT      -0.834000       15.9994           0
     23373 TIP3     2008     TIP3     H1       HT       0.417000       1.00800           0
     23374 TIP3     2008     TIP3     H2       HT       0.417000       1.00800           0
     23375 TIP3     2009     TIP3     OH2      OT      -0.834000       15.9994           0
     23376 TIP3     2009     TIP3     H1       HT       0.417000       1.00800           0
     23377 TIP3     2009     TIP3     H2       HT       0.417000       1.00800           0
     23378 TIP3     2010     TIP3     OH2      OT      -0.834000       15.9994           0
     23379 TIP3     2010     TIP3     H1       HT       0.417000       1.00800           0
     23380 TIP3     2010     TIP3     H2       HT       0.417000       1.00800           0
     23381 TIP3     2011     TIP3     OH2      OT      -0.834000       15.9994           0
     23382 TIP3     2011     TIP3     H1       HT       0.417000       1.00800           0
     23383 TIP3     2011     TIP3     H2       HT       0.417000       1.00800           0
     23384 TIP3     2012     TIP3     OH2      OT      -0.834000       15.9994           0
     23385 TIP3     2012     TIP3     H1       HT       0.417000       1.00800           0
     23386 TIP3     2012     TIP3     H2       HT       0.417000       1.00800           0
     23387 TIP3     2013     TIP3     OH2      OT      -0.834000       15.9994           0
     23388 TIP3     2013     TIP3     H1       HT       0.417000       1.00800           0
     23389 TIP3     2013     TIP3     H2       HT       0.417000       1.00800           0
     23390 TIP3     2014     TIP3     OH2      OT      -0.834000       15.9994           0
     23391 TIP3     2014     TIP3     H1       HT       0.417000       1.00800           0
     23392 TIP3     2014     TIP3     H2       HT       0.417000       1.00800           0
     23393 TIP3     2015     TIP3     OH2      OT      -0.834000       15.9994           0
     23394 TIP3     2015     TIP3     H1       HT       0.417000       1.00800           0
     23395 TIP3     2015     TIP3     H2       HT       0.417000       1.00800           0
     23396 TIP3     2016     TIP3     OH2      OT      -0.834000       15.9994           0
     23397 TIP3     2016     TIP3     H1       HT       0.417000       1.00800           0
     23398 TIP3     2016     TIP3     H2       HT       0.417000       1.00800           0
     23399 TIP3     2017     TIP3     OH2      OT      -0.834000       15.9994           0
     23400 TIP3     2017     TIP3     H1       HT       0.417000       1.00800           0
     23401 TIP3     2017     TIP3     H2       HT       0.417000       1.00800           0
     23402 TIP3     2018     TIP3     OH2      OT      -0.834000       15.9994           0
     23403 TIP3     2018     TIP3     H1       HT       0.417000       1.00800           0
     23404 TIP3     2018     TIP3     H2       HT       0.417000       1.00800           0
     23405 TIP3     2019     TIP3     OH2      OT      -0.834000       15.9994           0
     23406 TIP3     2019     TIP3     H1       HT       0.417000       1.00800           0
     23407 TIP3     2019     TIP3     H2       HT       0.417000       1.00800           0
     23408 TIP3     2020     TIP3     OH2      OT      -0.834000       15.9994           0
     23409 TIP3     2020     TIP3     H1       HT       0.417000       1.00800           0
     23410 TIP3     2020     TIP3     H2       HT       0.417000       1.00800           0
     23411 TIP3     2021     TIP3     OH2      OT      -0.834000       15.9994           0
     23412 TIP3     2021     TIP3     H1       HT       0.417000       1.00800           0
     23413 TIP3     2021     TIP3     H2       HT       0.417000       1.00800           0
     23414 TIP3     2022     TIP3     OH2      OT      -0.834000       15.9994           0
     23415 TIP3     2022     TIP3     H1       HT       0.417000       1.00800           0
     23416 TIP3     2022     TIP3     H2       HT       0.417000       1.00800           0
     23417 TIP3     2023     TIP3     OH2      OT      -0.834000       15.9994           0
     23418 TIP3     2023     TIP3     H1       HT       0.417000       1.00800           0
     23419 TIP3     2023     TIP3     H2       HT       0.417000       1.00800           0
     23420 TIP3     2024     TIP3     OH2      OT      -0.834000       15.9994           0
     23421 TIP3     2024     TIP3     H1       HT       0.417000       1.00800           0
     23422 TIP3     2024     TIP3     H2       HT       0.417000       1.00800           0
     23423 TIP3     2025     TIP3     OH2      OT      -0.834000       15.9994           0
     23424 TIP3     2025     TIP3     H1       HT       0.417000       1.00800           0
     23425 TIP3     2025     TIP3     H2       HT       0.417000       1.00800           0
     23426 TIP3     2026     TIP3     OH2      OT      -0.834000       15.9994           0
     23427 TIP3     2026     TIP3     H1       HT       0.417000       1.00800           0
     23428 TIP3     2026     TIP3     H2       HT       0.417000       1.00800           0
     23429 TIP3     2027     TIP3     OH2      OT      -0.834000       15.9994           0
     23430 TIP3     2027     TIP3     H1       HT       0.417000       1.00800           0
     23431 TIP3     2027     TIP3     H2       HT       0.417000       1.00800           0
     23432 TIP3     2028     TIP3     OH2      OT      -0.834000       15.9994           0
     23433 TIP3     2028     TIP3     H1       HT       0.417000       1.00800           0
     23434 TIP3     2028     TIP3     H2       HT       0.417000       1.00800           0
     23435 TIP3     2029     TIP3     OH2      OT      -0.834000       15.9994           0
     23436 TIP3     2029     TIP3     H1       HT       0.417000       1.00800           0
     23437 TIP3     2029     TIP3     H2       HT       0.417000       1.00800           0
     23438 TIP3     2030     TIP3     OH2      OT      -0.834000       15.9994           0
     23439 TIP3     2030     TIP3     H1       HT       0.417000       1.00800           0
     23440 TIP3     2030     TIP3     H2       HT       0.417000       1.00800           0
     23441 TIP3     2031     TIP3     OH2      OT      -0.834000       15.9994           0
     23442 TIP3     2031     TIP3     H1       HT       0.417000       1.00800           0
     23443 TIP3     2031     TIP3     H2       HT       0.417000       1.00800           0
     23444 TIP3     2032     TIP3     OH2      OT      -0.834000       15.9994           0
     23445 TIP3     2032     TIP3     H1       HT       0.417000       1.00800           0
     23446 TIP3     2032     TIP3     H2       HT       0.417000       1.00800           0
     23447 TIP3     2033     TIP3     OH2      OT      -0.834000       15.9994           0
     23448 TIP3     2033     TIP3     H1       HT       0.417000       1.00800           0
     23449 TIP3     2033     TIP3     H2       HT       0.417000       1.00800           0
     23450 TIP3     2034     TIP3     OH2      OT      -0.834000       15.9994           0
     23451 TIP3     2034     TIP3     H1       HT       0.417000       1.00800           0
     23452 TIP3     2034     TIP3     H2       HT       0.417000       1.00800           0
     23453 TIP3     2035     TIP3     OH2      OT      -0.834000       15.9994           0
     23454 TIP3     2035     TIP3     H1       HT       0.417000       1.00800           0
     23455 TIP3     2035     TIP3     H2       HT       0.417000       1.00800           0
     23456 TIP3     2036     TIP3     OH2      OT      -0.834000       15.9994           0
     23457 TIP3     2036     TIP3     H1       HT       0.417000       1.00800           0
     23458 TIP3     2036     TIP3     H2       HT       0.417000       1.00800           0
     23459 TIP3     2037     TIP3     OH2      OT      -0.834000       15.9994           0
     23460 TIP3     2037     TIP3     H1       HT       0.417000       1.00800           0
     23461 TIP3     2037     TIP3     H2       HT       0.417000       1.00800           0
     23462 TIP3     2038     TIP3     OH2      OT      -0.834000       15.9994           0
     23463 TIP3     2038     TIP3     H1       HT       0.417000       1.00800           0
     23464 TIP3     2038     TIP3     H2       HT       0.417000       1.00800           0
     23465 TIP3     2039     TIP3     OH2      OT      -0.834000       15.9994           0
     23466 TIP3     2039     TIP3     H1       HT       0.417000       1.00800           0
     23467 TIP3     2039     TIP3     H2       HT       0.417000       1.00800           0
     23468 TIP3     2040     TIP3     OH2      OT      -0.834000       15.9994           0
     23469 TIP3     2040     TIP3     H1       HT       0.417000       1.00800           0
     23470 TIP3     2040     TIP3     H2       HT       0.417000       1.00800           0
     23471 TIP3     2041     TIP3     OH2      OT      -0.834000       15.9994           0
     23472 TIP3     2041     TIP3     H1       HT       0.417000       1.00800           0
     23473 TIP3     2041     TIP3     H2       HT       0.417000       1.00800           0
     23474 TIP3     2042     TIP3     OH2      OT      -0.834000       15.9994           0
     23475 TIP3     2042     TIP3     H1       HT       0.417000       1.00800           0
     23476 TIP3     2042     TIP3     H2       HT       0.417000       1.00800           0
     23477 TIP3     2043     TIP3     OH2      OT      -0.834000       15.9994           0
     23478 TIP3     2043     TIP3     H1       HT       0.417000       1.00800           0
     23479 TIP3     2043     TIP3     H2       HT       0.417000       1.00800           0
     23480 TIP3     2044     TIP3     OH2      OT      -0.834000       15.9994           0
     23481 TIP3     2044     TIP3     H1       HT       0.417000       1.00800           0
     23482 TIP3     2044     TIP3     H2       HT       0.417000       1.00800           0
     23483 TIP3     2045     TIP3     OH2      OT      -0.834000       15.9994           0
     23484 TIP3     2045     TIP3     H1       HT       0.417000       1.00800           0
     23485 TIP3     2045     TIP3     H2       HT       0.417000       1.00800           0
     23486 TIP3     2046     TIP3     OH2      OT      -0.834000       15.9994           0
     23487 TIP3     2046     TIP3     H1       HT       0.417000       1.00800           0
     23488 TIP3     2046     TIP3     H2       HT       0.417000       1.00800           0
     23489 TIP3     2047     TIP3     OH2      OT      -0.834000       15.9994           0
     23490 TIP3     2047     TIP3     H1       HT       0.417000       1.00800           0
     23491 TIP3     2047     TIP3     H2       HT       0.417000       1.00800           0
     23492 TIP3     2048     TIP3     OH2      OT      -0.834000       15.9994           0
     23493 TIP3     2048     TIP3     H1       HT       0.417000       1.00800           0
     23494 TIP3     2048     TIP3     H2       HT       0.417000       1.00800           0
     23495 TIP3     2049     TIP3     OH2      OT      -0.834000       15.9994           0
     23496 TIP3     2049     TIP3     H1       HT       0.417000       1.00800           0
     23497 TIP3     2049     TIP3     H2       HT       0.417000       1.00800           0
     23498 TIP3     2050     TIP3     OH2      OT      -0.834000       15.9994           0
     23499 TIP3     2050     TIP3     H1       HT       0.417000       1.00800           0
     23500 TIP3     2050     TIP3     H2       HT       0.417000       1.00800           0
     23501 TIP3     2051     TIP3     OH2      OT      -0.834000       15.9994           0
     23502 TIP3     2051     TIP3     H1       HT       0.417000       1.00800           0
     23503 TIP3     2051     TIP3     H2       HT       0.417000       1.00800           0
     23504 TIP3     2052     TIP3     OH2      OT      -0.834000       15.9994           0
     23505 TIP3     2052     TIP3     H1       HT       0.417000       1.00800           0
     23506 TIP3     2052     TIP3     H2       HT       0.417000       1.00800           0
     23507 TIP3     2053     TIP3     OH2      OT      -0.834000       15.9994           0
     23508 TIP3     2053     TIP3     H1       HT       0.417000       1.00800           0
     23509 TIP3     2053     TIP3     H2       HT       0.417000       1.00800           0
     23510 TIP3     2054     TIP3     OH2      OT      -0.834000       15.9994           0
     23511 TIP3     2054     TIP3     H1       HT       0.417000       1.00800           0
     23512 TIP3     2054     TIP3     H2       HT       0.417000       1.00800           0
     23513 TIP3     2055     TIP3     OH2      OT      -0.834000       15.9994           0
     23514 TIP3     2055     TIP3     H1       HT       0.417000       1.00800           0
     23515 TIP3     2055     TIP3     H2       HT       0.417000       1.00800           0
     23516 TIP3     2056     TIP3     OH2      OT      -0.834000       15.9994           0
     23517 TIP3     2056     TIP3     H1       HT       0.417000       1.00800           0
     23518 TIP3     2056     TIP3     H2       HT       0.417000       1.00800           0
     23519 TIP3     2057     TIP3     OH2      OT      -0.834000       15.9994           0
     23520 TIP3     2057     TIP3     H1       HT       0.417000       1.00800           0
     23521 TIP3     2057     TIP3     H2       HT       0.417000       1.00800           0
     23522 TIP3     2058     TIP3     OH2      OT      -0.834000       15.9994           0
     23523 TIP3     2058     TIP3     H1       HT       0.417000       1.00800           0
     23524 TIP3     2058     TIP3     H2       HT       0.417000       1.00800           0
     23525 TIP3     2059     TIP3     OH2      OT      -0.834000       15.9994           0
     23526 TIP3     2059     TIP3     H1       HT       0.417000       1.00800           0
     23527 TIP3     2059     TIP3     H2       HT       0.417000       1.00800           0
     23528 TIP3     2060     TIP3     OH2      OT      -0.834000       15.9994           0
     23529 TIP3     2060     TIP3     H1       HT       0.417000       1.00800           0
     23530 TIP3     2060     TIP3     H2       HT       0.417000       1.00800           0
     23531 TIP3     2061     TIP3     OH2      OT      -0.834000       15.9994           0
     23532 TIP3     2061     TIP3     H1       HT       0.417000       1.00800           0
     23533 TIP3     2061     TIP3     H2       HT       0.417000       1.00800           0
     23534 TIP3     2062     TIP3     OH2      OT      -0.834000       15.9994           0
     23535 TIP3     2062     TIP3     H1       HT       0.417000       1.00800           0
     23536 TIP3     2062     TIP3     H2       HT       0.417000       1.00800           0
     23537 TIP3     2063     TIP3     OH2      OT      -0.834000       15.9994           0
     23538 TIP3     2063     TIP3     H1       HT       0.417000       1.00800           0
     23539 TIP3     2063     TIP3     H2       HT       0.417000       1.00800           0
     23540 TIP3     2064     TIP3     OH2      OT      -0.834000       15.9994           0
     23541 TIP3     2064     TIP3     H1       HT       0.417000       1.00800           0
     23542 TIP3     2064     TIP3     H2       HT       0.417000       1.00800           0
     23543 TIP3     2065     TIP3     OH2      OT      -0.834000       15.9994           0
     23544 TIP3     2065     TIP3     H1       HT       0.417000       1.00800           0
     23545 TIP3     2065     TIP3     H2       HT       0.417000       1.00800           0
     23546 TIP3     2066     TIP3     OH2      OT      -0.834000       15.9994           0
     23547 TIP3     2066     TIP3     H1       HT       0.417000       1.00800           0
     23548 TIP3     2066     TIP3     H2       HT       0.417000       1.00800           0
     23549 TIP3     2067     TIP3     OH2      OT      -0.834000       15.9994           0
     23550 TIP3     2067     TIP3     H1       HT       0.417000       1.00800           0
     23551 TIP3     2067     TIP3     H2       HT       0.417000       1.00800           0
     23552 TIP3     2068     TIP3     OH2      OT      -0.834000       15.9994           0
     23553 TIP3     2068     TIP3     H1       HT       0.417000       1.00800           0
     23554 TIP3     2068     TIP3     H2       HT       0.417000       1.00800           0
     23555 TIP3     2069     TIP3     OH2      OT      -0.834000       15.9994           0
     23556 TIP3     2069     TIP3     H1       HT       0.417000       1.00800           0
     23557 TIP3     2069     TIP3     H2       HT       0.417000       1.00800           0
     23558 TIP3     2070     TIP3     OH2      OT      -0.834000       15.9994           0
     23559 TIP3     2070     TIP3     H1       HT       0.417000       1.00800           0
     23560 TIP3     2070     TIP3     H2       HT       0.417000       1.00800           0
     23561 TIP3     2071     TIP3     OH2      OT      -0.834000       15.9994           0
     23562 TIP3     2071     TIP3     H1       HT       0.417000       1.00800           0
     23563 TIP3     2071     TIP3     H2       HT       0.417000       1.00800           0
     23564 TIP3     2072     TIP3     OH2      OT      -0.834000       15.9994           0
     23565 TIP3     2072     TIP3     H1       HT       0.417000       1.00800           0
     23566 TIP3     2072     TIP3     H2       HT       0.417000       1.00800           0
     23567 TIP3     2073     TIP3     OH2      OT      -0.834000       15.9994           0
     23568 TIP3     2073     TIP3     H1       HT       0.417000       1.00800           0
     23569 TIP3     2073     TIP3     H2       HT       0.417000       1.00800           0
     23570 TIP3     2074     TIP3     OH2      OT      -0.834000       15.9994           0
     23571 TIP3     2074     TIP3     H1       HT       0.417000       1.00800           0
     23572 TIP3     2074     TIP3     H2       HT       0.417000       1.00800           0
     23573 TIP3     2075     TIP3     OH2      OT      -0.834000       15.9994           0
     23574 TIP3     2075     TIP3     H1       HT       0.417000       1.00800           0
     23575 TIP3     2075     TIP3     H2       HT       0.417000       1.00800           0
     23576 TIP3     2076     TIP3     OH2      OT      -0.834000       15.9994           0
     23577 TIP3     2076     TIP3     H1       HT       0.417000       1.00800           0
     23578 TIP3     2076     TIP3     H2       HT       0.417000       1.00800           0
     23579 TIP3     2077     TIP3     OH2      OT      -0.834000       15.9994           0
     23580 TIP3     2077     TIP3     H1       HT       0.417000       1.00800           0
     23581 TIP3     2077     TIP3     H2       HT       0.417000       1.00800           0
     23582 TIP3     2078     TIP3     OH2      OT      -0.834000       15.9994           0
     23583 TIP3     2078     TIP3     H1       HT       0.417000       1.00800           0
     23584 TIP3     2078     TIP3     H2       HT       0.417000       1.00800           0
     23585 TIP3     2079     TIP3     OH2      OT      -0.834000       15.9994           0
     23586 TIP3     2079     TIP3     H1       HT       0.417000       1.00800           0
     23587 TIP3     2079     TIP3     H2       HT       0.417000       1.00800           0
     23588 TIP3     2080     TIP3     OH2      OT      -0.834000       15.9994           0
     23589 TIP3     2080     TIP3     H1       HT       0.417000       1.00800           0
     23590 TIP3     2080     TIP3     H2       HT       0.417000       1.00800           0
     23591 TIP3     2081     TIP3     OH2      OT      -0.834000       15.9994           0
     23592 TIP3     2081     TIP3     H1       HT       0.417000       1.00800           0
     23593 TIP3     2081     TIP3     H2       HT       0.417000       1.00800           0
     23594 TIP3     2082     TIP3     OH2      OT      -0.834000       15.9994           0
     23595 TIP3     2082     TIP3     H1       HT       0.417000       1.00800           0
     23596 TIP3     2082     TIP3     H2       HT       0.417000       1.00800           0
     23597 TIP3     2083     TIP3     OH2      OT      -0.834000       15.9994           0
     23598 TIP3     2083     TIP3     H1       HT       0.417000       1.00800           0
     23599 TIP3     2083     TIP3     H2       HT       0.417000       1.00800           0
     23600 TIP3     2084     TIP3     OH2      OT      -0.834000       15.9994           0
     23601 TIP3     2084     TIP3     H1       HT       0.417000       1.00800           0
     23602 TIP3     2084     TIP3     H2       HT       0.417000       1.00800           0
     23603 TIP3     2085     TIP3     OH2      OT      -0.834000       15.9994           0
     23604 TIP3     2085     TIP3     H1       HT       0.417000       1.00800           0
     23605 TIP3     2085     TIP3     H2       HT       0.417000       1.00800           0
     23606 TIP3     2086     TIP3     OH2      OT      -0.834000       15.9994           0
     23607 TIP3     2086     TIP3     H1       HT       0.417000       1.00800           0
     23608 TIP3     2086     TIP3     H2       HT       0.417000       1.00800           0
     23609 TIP3     2087     TIP3     OH2      OT      -0.834000       15.9994           0
     23610 TIP3     2087     TIP3     H1       HT       0.417000       1.00800           0
     23611 TIP3     2087     TIP3     H2       HT       0.417000       1.00800           0
     23612 TIP3     2088     TIP3     OH2      OT      -0.834000       15.9994           0
     23613 TIP3     2088     TIP3     H1       HT       0.417000       1.00800           0
     23614 TIP3     2088     TIP3     H2       HT       0.417000       1.00800           0
     23615 TIP3     2089     TIP3     OH2      OT      -0.834000       15.9994           0
     23616 TIP3     2089     TIP3     H1       HT       0.417000       1.00800           0
     23617 TIP3     2089     TIP3     H2       HT       0.417000       1.00800           0
     23618 TIP3     2090     TIP3     OH2      OT      -0.834000       15.9994           0
     23619 TIP3     2090     TIP3     H1       HT       0.417000       1.00800           0
     23620 TIP3     2090     TIP3     H2       HT       0.417000       1.00800           0
     23621 TIP3     2091     TIP3     OH2      OT      -0.834000       15.9994           0
     23622 TIP3     2091     TIP3     H1       HT       0.417000       1.00800           0
     23623 TIP3     2091     TIP3     H2       HT       0.417000       1.00800           0
     23624 TIP3     2092     TIP3     OH2      OT      -0.834000       15.9994           0
     23625 TIP3     2092     TIP3     H1       HT       0.417000       1.00800           0
     23626 TIP3     2092     TIP3     H2       HT       0.417000       1.00800           0
     23627 TIP3     2093     TIP3     OH2      OT      -0.834000       15.9994           0
     23628 TIP3     2093     TIP3     H1       HT       0.417000       1.00800           0
     23629 TIP3     2093     TIP3     H2       HT       0.417000       1.00800           0
     23630 TIP3     2094     TIP3     OH2      OT      -0.834000       15.9994           0
     23631 TIP3     2094     TIP3     H1       HT       0.417000       1.00800           0
     23632 TIP3     2094     TIP3     H2       HT       0.417000       1.00800           0
     23633 TIP3     2095     TIP3     OH2      OT      -0.834000       15.9994           0
     23634 TIP3     2095     TIP3     H1       HT       0.417000       1.00800           0
     23635 TIP3     2095     TIP3     H2       HT       0.417000       1.00800           0
     23636 TIP3     2096     TIP3     OH2      OT      -0.834000       15.9994           0
     23637 TIP3     2096     TIP3     H1       HT       0.417000       1.00800           0
     23638 TIP3     2096     TIP3     H2       HT       0.417000       1.00800           0
     23639 TIP3     2097     TIP3     OH2      OT      -0.834000       15.9994           0
     23640 TIP3     2097     TIP3     H1       HT       0.417000       1.00800           0
     23641 TIP3     2097     TIP3     H2       HT       0.417000       1.00800           0
     23642 TIP3     2098     TIP3     OH2      OT      -0.834000       15.9994           0
     23643 TIP3     2098     TIP3     H1       HT       0.417000       1.00800           0
     23644 TIP3     2098     TIP3     H2       HT       0.417000       1.00800           0
     23645 TIP3     2099     TIP3     OH2      OT      -0.834000       15.9994           0
     23646 TIP3     2099     TIP3     H1       HT       0.417000       1.00800           0
     23647 TIP3     2099     TIP3     H2       HT       0.417000       1.00800           0
     23648 TIP3     2100     TIP3     OH2      OT      -0.834000       15.9994           0
     23649 TIP3     2100     TIP3     H1       HT       0.417000       1.00800           0
     23650 TIP3     2100     TIP3     H2       HT       0.417000       1.00800           0
     23651 TIP3     2101     TIP3     OH2      OT      -0.834000       15.9994           0
     23652 TIP3     2101     TIP3     H1       HT       0.417000       1.00800           0
     23653 TIP3     2101     TIP3     H2       HT       0.417000       1.00800           0
     23654 TIP3     2102     TIP3     OH2      OT      -0.834000       15.9994           0
     23655 TIP3     2102     TIP3     H1       HT       0.417000       1.00800           0
     23656 TIP3     2102     TIP3     H2       HT       0.417000       1.00800           0
     23657 TIP3     2103     TIP3     OH2      OT      -0.834000       15.9994           0
     23658 TIP3     2103     TIP3     H1       HT       0.417000       1.00800           0
     23659 TIP3     2103     TIP3     H2       HT       0.417000       1.00800           0
     23660 TIP3     2104     TIP3     OH2      OT      -0.834000       15.9994           0
     23661 TIP3     2104     TIP3     H1       HT       0.417000       1.00800           0
     23662 TIP3     2104     TIP3     H2       HT       0.417000       1.00800           0
     23663 TIP3     2105     TIP3     OH2      OT      -0.834000       15.9994           0
     23664 TIP3     2105     TIP3     H1       HT       0.417000       1.00800           0
     23665 TIP3     2105     TIP3     H2       HT       0.417000       1.00800           0
     23666 TIP3     2106     TIP3     OH2      OT      -0.834000       15.9994           0
     23667 TIP3     2106     TIP3     H1       HT       0.417000       1.00800           0
     23668 TIP3     2106     TIP3     H2       HT       0.417000       1.00800           0
     23669 TIP3     2107     TIP3     OH2      OT      -0.834000       15.9994           0
     23670 TIP3     2107     TIP3     H1       HT       0.417000       1.00800           0
     23671 TIP3     2107     TIP3     H2       HT       0.417000       1.00800           0
     23672 TIP3     2108     TIP3     OH2      OT      -0.834000       15.9994           0
     23673 TIP3     2108     TIP3     H1       HT       0.417000       1.00800           0
     23674 TIP3     2108     TIP3     H2       HT       0.417000       1.00800           0
     23675 TIP3     2109     TIP3     OH2      OT      -0.834000       15.9994           0
     23676 TIP3     2109     TIP3     H1       HT       0.417000       1.00800           0
     23677 TIP3     2109     TIP3     H2       HT       0.417000       1.00800           0
     23678 TIP3     2110     TIP3     OH2      OT      -0.834000       15.9994           0
     23679 TIP3     2110     TIP3     H1       HT       0.417000       1.00800           0
     23680 TIP3     2110     TIP3     H2       HT       0.417000       1.00800           0
     23681 TIP3     2111     TIP3     OH2      OT      -0.834000       15.9994           0
     23682 TIP3     2111     TIP3     H1       HT       0.417000       1.00800           0
     23683 TIP3     2111     TIP3     H2       HT       0.417000       1.00800           0
     23684 TIP3     2112     TIP3     OH2      OT      -0.834000       15.9994           0
     23685 TIP3     2112     TIP3     H1       HT       0.417000       1.00800           0
     23686 TIP3     2112     TIP3     H2       HT       0.417000       1.00800           0
     23687 TIP3     2113     TIP3     OH2      OT      -0.834000       15.9994           0
     23688 TIP3     2113     TIP3     H1       HT       0.417000       1.00800           0
     23689 TIP3     2113     TIP3     H2       HT       0.417000       1.00800           0
     23690 TIP3     2114     TIP3     OH2      OT      -0.834000       15.9994           0
     23691 TIP3     2114     TIP3     H1       HT       0.417000       1.00800           0
     23692 TIP3     2114     TIP3     H2       HT       0.417000       1.00800           0
     23693 TIP3     2115     TIP3     OH2      OT      -0.834000       15.9994           0
     23694 TIP3     2115     TIP3     H1       HT       0.417000       1.00800           0
     23695 TIP3     2115     TIP3     H2       HT       0.417000       1.00800           0
     23696 TIP3     2116     TIP3     OH2      OT      -0.834000       15.9994           0
     23697 TIP3     2116     TIP3     H1       HT       0.417000       1.00800           0
     23698 TIP3     2116     TIP3     H2       HT       0.417000       1.00800           0
     23699 TIP3     2117     TIP3     OH2      OT      -0.834000       15.9994           0
     23700 TIP3     2117     TIP3     H1       HT       0.417000       1.00800           0
     23701 TIP3     2117     TIP3     H2       HT       0.417000       1.00800           0
     23702 TIP3     2118     TIP3     OH2      OT      -0.834000       15.9994           0
     23703 TIP3     2118     TIP3     H1       HT       0.417000       1.00800           0
     23704 TIP3     2118     TIP3     H2       HT       0.417000       1.00800           0
     23705 TIP3     2119     TIP3     OH2      OT      -0.834000       15.9994           0
     23706 TIP3     2119     TIP3     H1       HT       0.417000       1.00800           0
     23707 TIP3     2119     TIP3     H2       HT       0.417000       1.00800           0
     23708 TIP3     2120     TIP3     OH2      OT      -0.834000       15.9994           0
     23709 TIP3     2120     TIP3     H1       HT       0.417000       1.00800           0
     23710 TIP3     2120     TIP3     H2       HT       0.417000       1.00800           0
     23711 TIP3     2121     TIP3     OH2      OT      -0.834000       15.9994           0
     23712 TIP3     2121     TIP3     H1       HT       0.417000       1.00800           0
     23713 TIP3     2121     TIP3     H2       HT       0.417000       1.00800           0
     23714 TIP3     2122     TIP3     OH2      OT      -0.834000       15.9994           0
     23715 TIP3     2122     TIP3     H1       HT       0.417000       1.00800           0
     23716 TIP3     2122     TIP3     H2       HT       0.417000       1.00800           0
     23717 TIP3     2123     TIP3     OH2      OT      -0.834000       15.9994           0
     23718 TIP3     2123     TIP3     H1       HT       0.417000       1.00800           0
     23719 TIP3     2123     TIP3     H2       HT       0.417000       1.00800           0
     23720 TIP3     2124     TIP3     OH2      OT      -0.834000       15.9994           0
     23721 TIP3     2124     TIP3     H1       HT       0.417000       1.00800           0
     23722 TIP3     2124     TIP3     H2       HT       0.417000       1.00800           0
     23723 TIP3     2125     TIP3     OH2      OT      -0.834000       15.9994           0
     23724 TIP3     2125     TIP3     H1       HT       0.417000       1.00800           0
     23725 TIP3     2125     TIP3     H2       HT       0.417000       1.00800           0
     23726 TIP3     2126     TIP3     OH2      OT      -0.834000       15.9994           0
     23727 TIP3     2126     TIP3     H1       HT       0.417000       1.00800           0
     23728 TIP3     2126     TIP3     H2       HT       0.417000       1.00800           0
     23729 TIP3     2127     TIP3     OH2      OT      -0.834000       15.9994           0
     23730 TIP3     2127     TIP3     H1       HT       0.417000       1.00800           0
     23731 TIP3     2127     TIP3     H2       HT       0.417000       1.00800           0
     23732 TIP3     2128     TIP3     OH2      OT      -0.834000       15.9994           0
     23733 TIP3     2128     TIP3     H1       HT       0.417000       1.00800           0
     23734 TIP3     2128     TIP3     H2       HT       0.417000       1.00800           0
     23735 TIP3     2129     TIP3     OH2      OT      -0.834000       15.9994           0
     23736 TIP3     2129     TIP3     H1       HT       0.417000       1.00800           0
     23737 TIP3     2129     TIP3     H2       HT       0.417000       1.00800           0
     23738 TIP3     2130     TIP3     OH2      OT      -0.834000       15.9994           0
     23739 TIP3     2130     TIP3     H1       HT       0.417000       1.00800           0
     23740 TIP3     2130     TIP3     H2       HT       0.417000       1.00800           0
     23741 TIP3     2131     TIP3     OH2      OT      -0.834000       15.9994           0
     23742 TIP3     2131     TIP3     H1       HT       0.417000       1.00800           0
     23743 TIP3     2131     TIP3     H2       HT       0.417000       1.00800           0
     23744 TIP3     2132     TIP3     OH2      OT      -0.834000       15.9994           0
     23745 TIP3     2132     TIP3     H1       HT       0.417000       1.00800           0
     23746 TIP3     2132     TIP3     H2       HT       0.417000       1.00800           0
     23747 TIP3     2133     TIP3     OH2      OT      -0.834000       15.9994           0
     23748 TIP3     2133     TIP3     H1       HT       0.417000       1.00800           0
     23749 TIP3     2133     TIP3     H2       HT       0.417000       1.00800           0
     23750 TIP3     2134     TIP3     OH2      OT      -0.834000       15.9994           0
     23751 TIP3     2134     TIP3     H1       HT       0.417000       1.00800           0
     23752 TIP3     2134     TIP3     H2       HT       0.417000       1.00800           0
     23753 TIP3     2135     TIP3     OH2      OT      -0.834000       15.9994           0
     23754 TIP3     2135     TIP3     H1       HT       0.417000       1.00800           0
     23755 TIP3     2135     TIP3     H2       HT       0.417000       1.00800           0
     23756 TIP3     2136     TIP3     OH2      OT      -0.834000       15.9994           0
     23757 TIP3     2136     TIP3     H1       HT       0.417000       1.00800           0
     23758 TIP3     2136     TIP3     H2       HT       0.417000       1.00800           0
     23759 TIP3     2137     TIP3     OH2      OT      -0.834000       15.9994           0
     23760 TIP3     2137     TIP3     H1       HT       0.417000       1.00800           0
     23761 TIP3     2137     TIP3     H2       HT       0.417000       1.00800           0
     23762 TIP3     2138     TIP3     OH2      OT      -0.834000       15.9994           0
     23763 TIP3     2138     TIP3     H1       HT       0.417000       1.00800           0
     23764 TIP3     2138     TIP3     H2       HT       0.417000       1.00800           0
     23765 TIP3     2139     TIP3     OH2      OT      -0.834000       15.9994           0
     23766 TIP3     2139     TIP3     H1       HT       0.417000       1.00800           0
     23767 TIP3     2139     TIP3     H2       HT       0.417000       1.00800           0
     23768 TIP3     2140     TIP3     OH2      OT      -0.834000       15.9994           0
     23769 TIP3     2140     TIP3     H1       HT       0.417000       1.00800           0
     23770 TIP3     2140     TIP3     H2       HT       0.417000       1.00800           0
     23771 TIP3     2141     TIP3     OH2      OT      -0.834000       15.9994           0
     23772 TIP3     2141     TIP3     H1       HT       0.417000       1.00800           0
     23773 TIP3     2141     TIP3     H2       HT       0.417000       1.00800           0
     23774 TIP3     2142     TIP3     OH2      OT      -0.834000       15.9994           0
     23775 TIP3     2142     TIP3     H1       HT       0.417000       1.00800           0
     23776 TIP3     2142     TIP3     H2       HT       0.417000       1.00800           0
     23777 TIP3     2143     TIP3     OH2      OT      -0.834000       15.9994           0
     23778 TIP3     2143     TIP3     H1       HT       0.417000       1.00800           0
     23779 TIP3     2143     TIP3     H2       HT       0.417000       1.00800           0
     23780 TIP3     2144     TIP3     OH2      OT      -0.834000       15.9994           0
     23781 TIP3     2144     TIP3     H1       HT       0.417000       1.00800           0
     23782 TIP3     2144     TIP3     H2       HT       0.417000       1.00800           0
     23783 TIP3     2145     TIP3     OH2      OT      -0.834000       15.9994           0
     23784 TIP3     2145     TIP3     H1       HT       0.417000       1.00800           0
     23785 TIP3     2145     TIP3     H2       HT       0.417000       1.00800           0
     23786 TIP3     2146     TIP3     OH2      OT      -0.834000       15.9994           0
     23787 TIP3     2146     TIP3     H1       HT       0.417000       1.00800           0
     23788 TIP3     2146     TIP3     H2       HT       0.417000       1.00800           0
     23789 TIP3     2147     TIP3     OH2      OT      -0.834000       15.9994           0
     23790 TIP3     2147     TIP3     H1       HT       0.417000       1.00800           0
     23791 TIP3     2147     TIP3     H2       HT       0.417000       1.00800           0
     23792 TIP3     2148     TIP3     OH2      OT      -0.834000       15.9994           0
     23793 TIP3     2148     TIP3     H1       HT       0.417000       1.00800           0
     23794 TIP3     2148     TIP3     H2       HT       0.417000       1.00800           0
     23795 TIP3     2149     TIP3     OH2      OT      -0.834000       15.9994           0
     23796 TIP3     2149     TIP3     H1       HT       0.417000       1.00800           0
     23797 TIP3     2149     TIP3     H2       HT       0.417000       1.00800           0
     23798 TIP3     2150     TIP3     OH2      OT      -0.834000       15.9994           0
     23799 TIP3     2150     TIP3     H1       HT       0.417000       1.00800           0
     23800 TIP3     2150     TIP3     H2       HT       0.417000       1.00800           0
     23801 TIP3     2151     TIP3     OH2      OT      -0.834000       15.9994           0
     23802 TIP3     2151     TIP3     H1       HT       0.417000       1.00800           0
     23803 TIP3     2151     TIP3     H2       HT       0.417000       1.00800           0
     23804 TIP3     2152     TIP3     OH2      OT      -0.834000       15.9994           0
     23805 TIP3     2152     TIP3     H1       HT       0.417000       1.00800           0
     23806 TIP3     2152     TIP3     H2       HT       0.417000       1.00800           0
     23807 TIP3     2153     TIP3     OH2      OT      -0.834000       15.9994           0
     23808 TIP3     2153     TIP3     H1       HT       0.417000       1.00800           0
     23809 TIP3     2153     TIP3     H2       HT       0.417000       1.00800           0
     23810 TIP3     2154     TIP3     OH2      OT      -0.834000       15.9994           0
     23811 TIP3     2154     TIP3     H1       HT       0.417000       1.00800           0
     23812 TIP3     2154     TIP3     H2       HT       0.417000       1.00800           0
     23813 TIP3     2155     TIP3     OH2      OT      -0.834000       15.9994           0
     23814 TIP3     2155     TIP3     H1       HT       0.417000       1.00800           0
     23815 TIP3     2155     TIP3     H2       HT       0.417000       1.00800           0
     23816 TIP3     2156     TIP3     OH2      OT      -0.834000       15.9994           0
     23817 TIP3     2156     TIP3     H1       HT       0.417000       1.00800           0
     23818 TIP3     2156     TIP3     H2       HT       0.417000       1.00800           0
     23819 TIP3     2157     TIP3     OH2      OT      -0.834000       15.9994           0
     23820 TIP3     2157     TIP3     H1       HT       0.417000       1.00800           0
     23821 TIP3     2157     TIP3     H2       HT       0.417000       1.00800           0
     23822 TIP3     2158     TIP3     OH2      OT      -0.834000       15.9994           0
     23823 TIP3     2158     TIP3     H1       HT       0.417000       1.00800           0
     23824 TIP3     2158     TIP3     H2       HT       0.417000       1.00800           0
     23825 TIP3     2159     TIP3     OH2      OT      -0.834000       15.9994           0
     23826 TIP3     2159     TIP3     H1       HT       0.417000       1.00800           0
     23827 TIP3     2159     TIP3     H2       HT       0.417000       1.00800           0
     23828 TIP3     2160     TIP3     OH2      OT      -0.834000       15.9994           0
     23829 TIP3     2160     TIP3     H1       HT       0.417000       1.00800           0
     23830 TIP3     2160     TIP3     H2       HT       0.417000       1.00800           0
     23831 TIP3     2161     TIP3     OH2      OT      -0.834000       15.9994           0
     23832 TIP3     2161     TIP3     H1       HT       0.417000       1.00800           0
     23833 TIP3     2161     TIP3     H2       HT       0.417000       1.00800           0
     23834 TIP3     2162     TIP3     OH2      OT      -0.834000       15.9994           0
     23835 TIP3     2162     TIP3     H1       HT       0.417000       1.00800           0
     23836 TIP3     2162     TIP3     H2       HT       0.417000       1.00800           0
     23837 TIP3     2163     TIP3     OH2      OT      -0.834000       15.9994           0
     23838 TIP3     2163     TIP3     H1       HT       0.417000       1.00800           0
     23839 TIP3     2163     TIP3     H2       HT       0.417000       1.00800           0
     23840 TIP3     2164     TIP3     OH2      OT      -0.834000       15.9994           0
     23841 TIP3     2164     TIP3     H1       HT       0.417000       1.00800           0
     23842 TIP3     2164     TIP3     H2       HT       0.417000       1.00800           0
     23843 TIP3     2165     TIP3     OH2      OT      -0.834000       15.9994           0
     23844 TIP3     2165     TIP3     H1       HT       0.417000       1.00800           0
     23845 TIP3     2165     TIP3     H2       HT       0.417000       1.00800           0
     23846 TIP3     2166     TIP3     OH2      OT      -0.834000       15.9994           0
     23847 TIP3     2166     TIP3     H1       HT       0.417000       1.00800           0
     23848 TIP3     2166     TIP3     H2       HT       0.417000       1.00800           0
     23849 TIP3     2167     TIP3     OH2      OT      -0.834000       15.9994           0
     23850 TIP3     2167     TIP3     H1       HT       0.417000       1.00800           0
     23851 TIP3     2167     TIP3     H2       HT       0.417000       1.00800           0
     23852 TIP3     2168     TIP3     OH2      OT      -0.834000       15.9994           0
     23853 TIP3     2168     TIP3     H1       HT       0.417000       1.00800           0
     23854 TIP3     2168     TIP3     H2       HT       0.417000       1.00800           0
     23855 TIP3     2169     TIP3     OH2      OT      -0.834000       15.9994           0
     23856 TIP3     2169     TIP3     H1       HT       0.417000       1.00800           0
     23857 TIP3     2169     TIP3     H2       HT       0.417000       1.00800           0
     23858 TIP3     2170     TIP3     OH2      OT      -0.834000       15.9994           0
     23859 TIP3     2170     TIP3     H1       HT       0.417000       1.00800           0
     23860 TIP3     2170     TIP3     H2       HT       0.417000       1.00800           0
     23861 TIP3     2171     TIP3     OH2      OT      -0.834000       15.9994           0
     23862 TIP3     2171     TIP3     H1       HT       0.417000       1.00800           0
     23863 TIP3     2171     TIP3     H2       HT       0.417000       1.00800           0
     23864 TIP3     2172     TIP3     OH2      OT      -0.834000       15.9994           0
     23865 TIP3     2172     TIP3     H1       HT       0.417000       1.00800           0
     23866 TIP3     2172     TIP3     H2       HT       0.417000       1.00800           0
     23867 TIP3     2173     TIP3     OH2      OT      -0.834000       15.9994           0
     23868 TIP3     2173     TIP3     H1       HT       0.417000       1.00800           0
     23869 TIP3     2173     TIP3     H2       HT       0.417000       1.00800           0
     23870 TIP3     2174     TIP3     OH2      OT      -0.834000       15.9994           0
     23871 TIP3     2174     TIP3     H1       HT       0.417000       1.00800           0
     23872 TIP3     2174     TIP3     H2       HT       0.417000       1.00800           0
     23873 TIP3     2175     TIP3     OH2      OT      -0.834000       15.9994           0
     23874 TIP3     2175     TIP3     H1       HT       0.417000       1.00800           0
     23875 TIP3     2175     TIP3     H2       HT       0.417000       1.00800           0
     23876 TIP3     2176     TIP3     OH2      OT      -0.834000       15.9994           0
     23877 TIP3     2176     TIP3     H1       HT       0.417000       1.00800           0
     23878 TIP3     2176     TIP3     H2       HT       0.417000       1.00800           0
     23879 TIP3     2177     TIP3     OH2      OT      -0.834000       15.9994           0
     23880 TIP3     2177     TIP3     H1       HT       0.417000       1.00800           0
     23881 TIP3     2177     TIP3     H2       HT       0.417000       1.00800           0
     23882 TIP3     2178     TIP3     OH2      OT      -0.834000       15.9994           0
     23883 TIP3     2178     TIP3     H1       HT       0.417000       1.00800           0
     23884 TIP3     2178     TIP3     H2       HT       0.417000       1.00800           0
     23885 TIP3     2179     TIP3     OH2      OT      -0.834000       15.9994           0
     23886 TIP3     2179     TIP3     H1       HT       0.417000       1.00800           0
     23887 TIP3     2179     TIP3     H2       HT       0.417000       1.00800           0
     23888 TIP3     2180     TIP3     OH2      OT      -0.834000       15.9994           0
     23889 TIP3     2180     TIP3     H1       HT       0.417000       1.00800           0
     23890 TIP3     2180     TIP3     H2       HT       0.417000       1.00800           0
     23891 TIP3     2181     TIP3     OH2      OT      -0.834000       15.9994           0
     23892 TIP3     2181     TIP3     H1       HT       0.417000       1.00800           0
     23893 TIP3     2181     TIP3     H2       HT       0.417000       1.00800           0
     23894 TIP3     2182     TIP3     OH2      OT      -0.834000       15.9994           0
     23895 TIP3     2182     TIP3     H1       HT       0.417000       1.00800           0
     23896 TIP3     2182     TIP3     H2       HT       0.417000       1.00800           0
     23897 TIP3     2183     TIP3     OH2      OT      -0.834000       15.9994           0
     23898 TIP3     2183     TIP3     H1       HT       0.417000       1.00800           0
     23899 TIP3     2183     TIP3     H2       HT       0.417000       1.00800           0
     23900 TIP3     2184     TIP3     OH2      OT      -0.834000       15.9994           0
     23901 TIP3     2184     TIP3     H1       HT       0.417000       1.00800           0
     23902 TIP3     2184     TIP3     H2       HT       0.417000       1.00800           0
     23903 TIP3     2185     TIP3     OH2      OT      -0.834000       15.9994           0
     23904 TIP3     2185     TIP3     H1       HT       0.417000       1.00800           0
     23905 TIP3     2185     TIP3     H2       HT       0.417000       1.00800           0
     23906 TIP3     2186     TIP3     OH2      OT      -0.834000       15.9994           0
     23907 TIP3     2186     TIP3     H1       HT       0.417000       1.00800           0
     23908 TIP3     2186     TIP3     H2       HT       0.417000       1.00800           0
     23909 TIP3     2187     TIP3     OH2      OT      -0.834000       15.9994           0
     23910 TIP3     2187     TIP3     H1       HT       0.417000       1.00800           0
     23911 TIP3     2187     TIP3     H2       HT       0.417000       1.00800           0
     23912 TIP3     2188     TIP3     OH2      OT      -0.834000       15.9994           0
     23913 TIP3     2188     TIP3     H1       HT       0.417000       1.00800           0
     23914 TIP3     2188     TIP3     H2       HT       0.417000       1.00800           0
     23915 TIP3     2189     TIP3     OH2      OT      -0.834000       15.9994           0
     23916 TIP3     2189     TIP3     H1       HT       0.417000       1.00800           0
     23917 TIP3     2189     TIP3     H2       HT       0.417000       1.00800           0
     23918 TIP3     2190     TIP3     OH2      OT      -0.834000       15.9994           0
     23919 TIP3     2190     TIP3     H1       HT       0.417000       1.00800           0
     23920 TIP3     2190     TIP3     H2       HT       0.417000       1.00800           0
     23921 TIP3     2191     TIP3     OH2      OT      -0.834000       15.9994           0
     23922 TIP3     2191     TIP3     H1       HT       0.417000       1.00800           0
     23923 TIP3     2191     TIP3     H2       HT       0.417000       1.00800           0
     23924 TIP3     2192     TIP3     OH2      OT      -0.834000       15.9994           0
     23925 TIP3     2192     TIP3     H1       HT       0.417000       1.00800           0
     23926 TIP3     2192     TIP3     H2       HT       0.417000       1.00800           0
     23927 TIP3     2193     TIP3     OH2      OT      -0.834000       15.9994           0
     23928 TIP3     2193     TIP3     H1       HT       0.417000       1.00800           0
     23929 TIP3     2193     TIP3     H2       HT       0.417000       1.00800           0
     23930 TIP3     2194     TIP3     OH2      OT      -0.834000       15.9994           0
     23931 TIP3     2194     TIP3     H1       HT       0.417000       1.00800           0
     23932 TIP3     2194     TIP3     H2       HT       0.417000       1.00800           0
     23933 TIP3     2195     TIP3     OH2      OT      -0.834000       15.9994           0
     23934 TIP3     2195     TIP3     H1       HT       0.417000       1.00800           0
     23935 TIP3     2195     TIP3     H2       HT       0.417000       1.00800           0
     23936 TIP3     2196     TIP3     OH2      OT      -0.834000       15.9994           0
     23937 TIP3     2196     TIP3     H1       HT       0.417000       1.00800           0
     23938 TIP3     2196     TIP3     H2       HT       0.417000       1.00800           0
     23939 TIP3     2197     TIP3     OH2      OT      -0.834000       15.9994           0
     23940 TIP3     2197     TIP3     H1       HT       0.417000       1.00800           0
     23941 TIP3     2197     TIP3     H2       HT       0.417000       1.00800           0
     23942 TIP3     2198     TIP3     OH2      OT      -0.834000       15.9994           0
     23943 TIP3     2198     TIP3     H1       HT       0.417000       1.00800           0
     23944 TIP3     2198     TIP3     H2       HT       0.417000       1.00800           0
     23945 TIP3     2199     TIP3     OH2      OT      -0.834000       15.9994           0
     23946 TIP3     2199     TIP3     H1       HT       0.417000       1.00800           0
     23947 TIP3     2199     TIP3     H2       HT       0.417000       1.00800           0
     23948 TIP3     2200     TIP3     OH2      OT      -0.834000       15.9994           0
     23949 TIP3     2200     TIP3     H1       HT       0.417000       1.00800           0
     23950 TIP3     2200     TIP3     H2       HT       0.417000       1.00800           0
     23951 TIP3     2201     TIP3     OH2      OT      -0.834000       15.9994           0
     23952 TIP3     2201     TIP3     H1       HT       0.417000       1.00800           0
     23953 TIP3     2201     TIP3     H2       HT       0.417000       1.00800           0
     23954 TIP3     2202     TIP3     OH2      OT      -0.834000       15.9994           0
     23955 TIP3     2202     TIP3     H1       HT       0.417000       1.00800           0
     23956 TIP3     2202     TIP3     H2       HT       0.417000       1.00800           0
     23957 TIP3     2203     TIP3     OH2      OT      -0.834000       15.9994           0
     23958 TIP3     2203     TIP3     H1       HT       0.417000       1.00800           0
     23959 TIP3     2203     TIP3     H2       HT       0.417000       1.00800           0
     23960 TIP3     2204     TIP3     OH2      OT      -0.834000       15.9994           0
     23961 TIP3     2204     TIP3     H1       HT       0.417000       1.00800           0
     23962 TIP3     2204     TIP3     H2       HT       0.417000       1.00800           0
     23963 TIP3     2205     TIP3     OH2      OT      -0.834000       15.9994           0
     23964 TIP3     2205     TIP3     H1       HT       0.417000       1.00800           0
     23965 TIP3     2205     TIP3     H2       HT       0.417000       1.00800           0
     23966 TIP3     2206     TIP3     OH2      OT      -0.834000       15.9994           0
     23967 TIP3     2206     TIP3     H1       HT       0.417000       1.00800           0
     23968 TIP3     2206     TIP3     H2       HT       0.417000       1.00800           0
     23969 TIP3     2207     TIP3     OH2      OT      -0.834000       15.9994           0
     23970 TIP3     2207     TIP3     H1       HT       0.417000       1.00800           0
     23971 TIP3     2207     TIP3     H2       HT       0.417000       1.00800           0
     23972 TIP3     2208     TIP3     OH2      OT      -0.834000       15.9994           0
     23973 TIP3     2208     TIP3     H1       HT       0.417000       1.00800           0
     23974 TIP3     2208     TIP3     H2       HT       0.417000       1.00800           0
     23975 TIP3     2209     TIP3     OH2      OT      -0.834000       15.9994           0
     23976 TIP3     2209     TIP3     H1       HT       0.417000       1.00800           0
     23977 TIP3     2209     TIP3     H2       HT       0.417000       1.00800           0
     23978 TIP3     2210     TIP3     OH2      OT      -0.834000       15.9994           0
     23979 TIP3     2210     TIP3     H1       HT       0.417000       1.00800           0
     23980 TIP3     2210     TIP3     H2       HT       0.417000       1.00800           0
     23981 TIP3     2211     TIP3     OH2      OT      -0.834000       15.9994           0
     23982 TIP3     2211     TIP3     H1       HT       0.417000       1.00800           0
     23983 TIP3     2211     TIP3     H2       HT       0.417000       1.00800           0
     23984 TIP3     2212     TIP3     OH2      OT      -0.834000       15.9994           0
     23985 TIP3     2212     TIP3     H1       HT       0.417000       1.00800           0
     23986 TIP3     2212     TIP3     H2       HT       0.417000       1.00800           0
     23987 TIP3     2213     TIP3     OH2      OT      -0.834000       15.9994           0
     23988 TIP3     2213     TIP3     H1       HT       0.417000       1.00800           0
     23989 TIP3     2213     TIP3     H2       HT       0.417000       1.00800           0
     23990 TIP3     2214     TIP3     OH2      OT      -0.834000       15.9994           0
     23991 TIP3     2214     TIP3     H1       HT       0.417000       1.00800           0
     23992 TIP3     2214     TIP3     H2       HT       0.417000       1.00800           0
     23993 TIP3     2215     TIP3     OH2      OT      -0.834000       15.9994           0
     23994 TIP3     2215     TIP3     H1       HT       0.417000       1.00800           0
     23995 TIP3     2215     TIP3     H2       HT       0.417000       1.00800           0
     23996 TIP3     2216     TIP3     OH2      OT      -0.834000       15.9994           0
     23997 TIP3     2216     TIP3     H1       HT       0.417000       1.00800           0
     23998 TIP3     2216     TIP3     H2       HT       0.417000       1.00800           0
     23999 TIP3     2217     TIP3     OH2      OT      -0.834000       15.9994           0
     24000 TIP3     2217     TIP3     H1       HT       0.417000       1.00800           0
     24001 TIP3     2217     TIP3     H2       HT       0.417000       1.00800           0
     24002 TIP3     2218     TIP3     OH2      OT      -0.834000       15.9994           0
     24003 TIP3     2218     TIP3     H1       HT       0.417000       1.00800           0
     24004 TIP3     2218     TIP3     H2       HT       0.417000       1.00800           0
     24005 TIP3     2219     TIP3     OH2      OT      -0.834000       15.9994           0
     24006 TIP3     2219     TIP3     H1       HT       0.417000       1.00800           0
     24007 TIP3     2219     TIP3     H2       HT       0.417000       1.00800           0
     24008 TIP3     2220     TIP3     OH2      OT      -0.834000       15.9994           0
     24009 TIP3     2220     TIP3     H1       HT       0.417000       1.00800           0
     24010 TIP3     2220     TIP3     H2       HT       0.417000       1.00800           0
     24011 TIP3     2221     TIP3     OH2      OT      -0.834000       15.9994           0
     24012 TIP3     2221     TIP3     H1       HT       0.417000       1.00800           0
     24013 TIP3     2221     TIP3     H2       HT       0.417000       1.00800           0
     24014 TIP3     2222     TIP3     OH2      OT      -0.834000       15.9994           0
     24015 TIP3     2222     TIP3     H1       HT       0.417000       1.00800           0
     24016 TIP3     2222     TIP3     H2       HT       0.417000       1.00800           0
     24017 TIP3     2223     TIP3     OH2      OT      -0.834000       15.9994           0
     24018 TIP3     2223     TIP3     H1       HT       0.417000       1.00800           0
     24019 TIP3     2223     TIP3     H2       HT       0.417000       1.00800           0
     24020 TIP3     2224     TIP3     OH2      OT      -0.834000       15.9994           0
     24021 TIP3     2224     TIP3     H1       HT       0.417000       1.00800           0
     24022 TIP3     2224     TIP3     H2       HT       0.417000       1.00800           0
     24023 TIP3     2225     TIP3     OH2      OT      -0.834000       15.9994           0
     24024 TIP3     2225     TIP3     H1       HT       0.417000       1.00800           0
     24025 TIP3     2225     TIP3     H2       HT       0.417000       1.00800           0
     24026 TIP3     2226     TIP3     OH2      OT      -0.834000       15.9994           0
     24027 TIP3     2226     TIP3     H1       HT       0.417000       1.00800           0
     24028 TIP3     2226     TIP3     H2       HT       0.417000       1.00800           0
     24029 TIP3     2227     TIP3     OH2      OT      -0.834000       15.9994           0
     24030 TIP3     2227     TIP3     H1       HT       0.417000       1.00800           0
     24031 TIP3     2227     TIP3     H2       HT       0.417000       1.00800           0
     24032 TIP3     2228     TIP3     OH2      OT      -0.834000       15.9994           0
     24033 TIP3     2228     TIP3     H1       HT       0.417000       1.00800           0
     24034 TIP3     2228     TIP3     H2       HT       0.417000       1.00800           0
     24035 TIP3     2229     TIP3     OH2      OT      -0.834000       15.9994           0
     24036 TIP3     2229     TIP3     H1       HT       0.417000       1.00800           0
     24037 TIP3     2229     TIP3     H2       HT       0.417000       1.00800           0
     24038 TIP3     2230     TIP3     OH2      OT      -0.834000       15.9994           0
     24039 TIP3     2230     TIP3     H1       HT       0.417000       1.00800           0
     24040 TIP3     2230     TIP3     H2       HT       0.417000       1.00800           0
     24041 TIP3     2231     TIP3     OH2      OT      -0.834000       15.9994           0
     24042 TIP3     2231     TIP3     H1       HT       0.417000       1.00800           0
     24043 TIP3     2231     TIP3     H2       HT       0.417000       1.00800           0
     24044 TIP3     2232     TIP3     OH2      OT      -0.834000       15.9994           0
     24045 TIP3     2232     TIP3     H1       HT       0.417000       1.00800           0
     24046 TIP3     2232     TIP3     H2       HT       0.417000       1.00800           0
     24047 TIP3     2233     TIP3     OH2      OT      -0.834000       15.9994           0
     24048 TIP3     2233     TIP3     H1       HT       0.417000       1.00800           0
     24049 TIP3     2233     TIP3     H2       HT       0.417000       1.00800           0
     24050 TIP3     2234     TIP3     OH2      OT      -0.834000       15.9994           0
     24051 TIP3     2234     TIP3     H1       HT       0.417000       1.00800           0
     24052 TIP3     2234     TIP3     H2       HT       0.417000       1.00800           0
     24053 TIP3     2235     TIP3     OH2      OT      -0.834000       15.9994           0
     24054 TIP3     2235     TIP3     H1       HT       0.417000       1.00800           0
     24055 TIP3     2235     TIP3     H2       HT       0.417000       1.00800           0
     24056 TIP3     2236     TIP3     OH2      OT      -0.834000       15.9994           0
     24057 TIP3     2236     TIP3     H1       HT       0.417000       1.00800           0
     24058 TIP3     2236     TIP3     H2       HT       0.417000       1.00800           0
     24059 TIP3     2237     TIP3     OH2      OT      -0.834000       15.9994           0
     24060 TIP3     2237     TIP3     H1       HT       0.417000       1.00800           0
     24061 TIP3     2237     TIP3     H2       HT       0.417000       1.00800           0
     24062 TIP3     2238     TIP3     OH2      OT      -0.834000       15.9994           0
     24063 TIP3     2238     TIP3     H1       HT       0.417000       1.00800           0
     24064 TIP3     2238     TIP3     H2       HT       0.417000       1.00800           0
     24065 TIP3     2239     TIP3     OH2      OT      -0.834000       15.9994           0
     24066 TIP3     2239     TIP3     H1       HT       0.417000       1.00800           0
     24067 TIP3     2239     TIP3     H2       HT       0.417000       1.00800           0
     24068 TIP3     2240     TIP3     OH2      OT      -0.834000       15.9994           0
     24069 TIP3     2240     TIP3     H1       HT       0.417000       1.00800           0
     24070 TIP3     2240     TIP3     H2       HT       0.417000       1.00800           0
     24071 TIP3     2241     TIP3     OH2      OT      -0.834000       15.9994           0
     24072 TIP3     2241     TIP3     H1       HT       0.417000       1.00800           0
     24073 TIP3     2241     TIP3     H2       HT       0.417000       1.00800           0
     24074 TIP3     2242     TIP3     OH2      OT      -0.834000       15.9994           0
     24075 TIP3     2242     TIP3     H1       HT       0.417000       1.00800           0
     24076 TIP3     2242     TIP3     H2       HT       0.417000       1.00800           0
     24077 TIP3     2243     TIP3     OH2      OT      -0.834000       15.9994           0
     24078 TIP3     2243     TIP3     H1       HT       0.417000       1.00800           0
     24079 TIP3     2243     TIP3     H2       HT       0.417000       1.00800           0
     24080 TIP3     2244     TIP3     OH2      OT      -0.834000       15.9994           0
     24081 TIP3     2244     TIP3     H1       HT       0.417000       1.00800           0
     24082 TIP3     2244     TIP3     H2       HT       0.417000       1.00800           0
     24083 TIP3     2245     TIP3     OH2      OT      -0.834000       15.9994           0
     24084 TIP3     2245     TIP3     H1       HT       0.417000       1.00800           0
     24085 TIP3     2245     TIP3     H2       HT       0.417000       1.00800           0
     24086 TIP3     2246     TIP3     OH2      OT      -0.834000       15.9994           0
     24087 TIP3     2246     TIP3     H1       HT       0.417000       1.00800           0
     24088 TIP3     2246     TIP3     H2       HT       0.417000       1.00800           0
     24089 TIP3     2247     TIP3     OH2      OT      -0.834000       15.9994           0
     24090 TIP3     2247     TIP3     H1       HT       0.417000       1.00800           0
     24091 TIP3     2247     TIP3     H2       HT       0.417000       1.00800           0
     24092 TIP3     2248     TIP3     OH2      OT      -0.834000       15.9994           0
     24093 TIP3     2248     TIP3     H1       HT       0.417000       1.00800           0
     24094 TIP3     2248     TIP3     H2       HT       0.417000       1.00800           0
     24095 TIP3     2249     TIP3     OH2      OT      -0.834000       15.9994           0
     24096 TIP3     2249     TIP3     H1       HT       0.417000       1.00800           0
     24097 TIP3     2249     TIP3     H2       HT       0.417000       1.00800           0
     24098 TIP3     2250     TIP3     OH2      OT      -0.834000       15.9994           0
     24099 TIP3     2250     TIP3     H1       HT       0.417000       1.00800           0
     24100 TIP3     2250     TIP3     H2       HT       0.417000       1.00800           0
     24101 TIP3     2251     TIP3     OH2      OT      -0.834000       15.9994           0
     24102 TIP3     2251     TIP3     H1       HT       0.417000       1.00800           0
     24103 TIP3     2251     TIP3     H2       HT       0.417000       1.00800           0
     24104 TIP3     2252     TIP3     OH2      OT      -0.834000       15.9994           0
     24105 TIP3     2252     TIP3     H1       HT       0.417000       1.00800           0
     24106 TIP3     2252     TIP3     H2       HT       0.417000       1.00800           0
     24107 TIP3     2253     TIP3     OH2      OT      -0.834000       15.9994           0
     24108 TIP3     2253     TIP3     H1       HT       0.417000       1.00800           0
     24109 TIP3     2253     TIP3     H2       HT       0.417000       1.00800           0
     24110 TIP3     2254     TIP3     OH2      OT      -0.834000       15.9994           0
     24111 TIP3     2254     TIP3     H1       HT       0.417000       1.00800           0
     24112 TIP3     2254     TIP3     H2       HT       0.417000       1.00800           0
     24113 TIP3     2255     TIP3     OH2      OT      -0.834000       15.9994           0
     24114 TIP3     2255     TIP3     H1       HT       0.417000       1.00800           0
     24115 TIP3     2255     TIP3     H2       HT       0.417000       1.00800           0
     24116 TIP3     2256     TIP3     OH2      OT      -0.834000       15.9994           0
     24117 TIP3     2256     TIP3     H1       HT       0.417000       1.00800           0
     24118 TIP3     2256     TIP3     H2       HT       0.417000       1.00800           0
     24119 TIP3     2257     TIP3     OH2      OT      -0.834000       15.9994           0
     24120 TIP3     2257     TIP3     H1       HT       0.417000       1.00800           0
     24121 TIP3     2257     TIP3     H2       HT       0.417000       1.00800           0
     24122 TIP3     2258     TIP3     OH2      OT      -0.834000       15.9994           0
     24123 TIP3     2258     TIP3     H1       HT       0.417000       1.00800           0
     24124 TIP3     2258     TIP3     H2       HT       0.417000       1.00800           0
     24125 TIP3     2259     TIP3     OH2      OT      -0.834000       15.9994           0
     24126 TIP3     2259     TIP3     H1       HT       0.417000       1.00800           0
     24127 TIP3     2259     TIP3     H2       HT       0.417000       1.00800           0
     24128 TIP3     2260     TIP3     OH2      OT      -0.834000       15.9994           0
     24129 TIP3     2260     TIP3     H1       HT       0.417000       1.00800           0
     24130 TIP3     2260     TIP3     H2       HT       0.417000       1.00800           0
     24131 TIP3     2261     TIP3     OH2      OT      -0.834000       15.9994           0
     24132 TIP3     2261     TIP3     H1       HT       0.417000       1.00800           0
     24133 TIP3     2261     TIP3     H2       HT       0.417000       1.00800           0
     24134 TIP3     2262     TIP3     OH2      OT      -0.834000       15.9994           0
     24135 TIP3     2262     TIP3     H1       HT       0.417000       1.00800           0
     24136 TIP3     2262     TIP3     H2       HT       0.417000       1.00800           0
     24137 TIP3     2263     TIP3     OH2      OT      -0.834000       15.9994           0
     24138 TIP3     2263     TIP3     H1       HT       0.417000       1.00800           0
     24139 TIP3     2263     TIP3     H2       HT       0.417000       1.00800           0
     24140 TIP3     2264     TIP3     OH2      OT      -0.834000       15.9994           0
     24141 TIP3     2264     TIP3     H1       HT       0.417000       1.00800           0
     24142 TIP3     2264     TIP3     H2       HT       0.417000       1.00800           0
     24143 TIP3     2265     TIP3     OH2      OT      -0.834000       15.9994           0
     24144 TIP3     2265     TIP3     H1       HT       0.417000       1.00800           0
     24145 TIP3     2265     TIP3     H2       HT       0.417000       1.00800           0
     24146 TIP3     2266     TIP3     OH2      OT      -0.834000       15.9994           0
     24147 TIP3     2266     TIP3     H1       HT       0.417000       1.00800           0
     24148 TIP3     2266     TIP3     H2       HT       0.417000       1.00800           0
     24149 TIP3     2267     TIP3     OH2      OT      -0.834000       15.9994           0
     24150 TIP3     2267     TIP3     H1       HT       0.417000       1.00800           0
     24151 TIP3     2267     TIP3     H2       HT       0.417000       1.00800           0
     24152 TIP3     2268     TIP3     OH2      OT      -0.834000       15.9994           0
     24153 TIP3     2268     TIP3     H1       HT       0.417000       1.00800           0
     24154 TIP3     2268     TIP3     H2       HT       0.417000       1.00800           0
     24155 TIP3     2269     TIP3     OH2      OT      -0.834000       15.9994           0
     24156 TIP3     2269     TIP3     H1       HT       0.417000       1.00800           0
     24157 TIP3     2269     TIP3     H2       HT       0.417000       1.00800           0
     24158 TIP3     2270     TIP3     OH2      OT      -0.834000       15.9994           0
     24159 TIP3     2270     TIP3     H1       HT       0.417000       1.00800           0
     24160 TIP3     2270     TIP3     H2       HT       0.417000       1.00800           0
     24161 TIP3     2271     TIP3     OH2      OT      -0.834000       15.9994           0
     24162 TIP3     2271     TIP3     H1       HT       0.417000       1.00800           0
     24163 TIP3     2271     TIP3     H2       HT       0.417000       1.00800           0
     24164 TIP3     2272     TIP3     OH2      OT      -0.834000       15.9994           0
     24165 TIP3     2272     TIP3     H1       HT       0.417000       1.00800           0
     24166 TIP3     2272     TIP3     H2       HT       0.417000       1.00800           0
     24167 TIP3     2273     TIP3     OH2      OT      -0.834000       15.9994           0
     24168 TIP3     2273     TIP3     H1       HT       0.417000       1.00800           0
     24169 TIP3     2273     TIP3     H2       HT       0.417000       1.00800           0
     24170 TIP3     2274     TIP3     OH2      OT      -0.834000       15.9994           0
     24171 TIP3     2274     TIP3     H1       HT       0.417000       1.00800           0
     24172 TIP3     2274     TIP3     H2       HT       0.417000       1.00800           0
     24173 TIP3     2275     TIP3     OH2      OT      -0.834000       15.9994           0
     24174 TIP3     2275     TIP3     H1       HT       0.417000       1.00800           0
     24175 TIP3     2275     TIP3     H2       HT       0.417000       1.00800           0
     24176 TIP3     2276     TIP3     OH2      OT      -0.834000       15.9994           0
     24177 TIP3     2276     TIP3     H1       HT       0.417000       1.00800           0
     24178 TIP3     2276     TIP3     H2       HT       0.417000       1.00800           0
     24179 TIP3     2277     TIP3     OH2      OT      -0.834000       15.9994           0
     24180 TIP3     2277     TIP3     H1       HT       0.417000       1.00800           0
     24181 TIP3     2277     TIP3     H2       HT       0.417000       1.00800           0
     24182 TIP3     2278     TIP3     OH2      OT      -0.834000       15.9994           0
     24183 TIP3     2278     TIP3     H1       HT       0.417000       1.00800           0
     24184 TIP3     2278     TIP3     H2       HT       0.417000       1.00800           0
     24185 TIP3     2279     TIP3     OH2      OT      -0.834000       15.9994           0
     24186 TIP3     2279     TIP3     H1       HT       0.417000       1.00800           0
     24187 TIP3     2279     TIP3     H2       HT       0.417000       1.00800           0
     24188 TIP3     2280     TIP3     OH2      OT      -0.834000       15.9994           0
     24189 TIP3     2280     TIP3     H1       HT       0.417000       1.00800           0
     24190 TIP3     2280     TIP3     H2       HT       0.417000       1.00800           0
     24191 TIP3     2281     TIP3     OH2      OT      -0.834000       15.9994           0
     24192 TIP3     2281     TIP3     H1       HT       0.417000       1.00800           0
     24193 TIP3     2281     TIP3     H2       HT       0.417000       1.00800           0
     24194 TIP3     2282     TIP3     OH2      OT      -0.834000       15.9994           0
     24195 TIP3     2282     TIP3     H1       HT       0.417000       1.00800           0
     24196 TIP3     2282     TIP3     H2       HT       0.417000       1.00800           0
     24197 TIP3     2283     TIP3     OH2      OT      -0.834000       15.9994           0
     24198 TIP3     2283     TIP3     H1       HT       0.417000       1.00800           0
     24199 TIP3     2283     TIP3     H2       HT       0.417000       1.00800           0
     24200 TIP3     2284     TIP3     OH2      OT      -0.834000       15.9994           0
     24201 TIP3     2284     TIP3     H1       HT       0.417000       1.00800           0
     24202 TIP3     2284     TIP3     H2       HT       0.417000       1.00800           0
     24203 TIP3     2285     TIP3     OH2      OT      -0.834000       15.9994           0
     24204 TIP3     2285     TIP3     H1       HT       0.417000       1.00800           0
     24205 TIP3     2285     TIP3     H2       HT       0.417000       1.00800           0
     24206 TIP3     2286     TIP3     OH2      OT      -0.834000       15.9994           0
     24207 TIP3     2286     TIP3     H1       HT       0.417000       1.00800           0
     24208 TIP3     2286     TIP3     H2       HT       0.417000       1.00800           0
     24209 TIP3     2287     TIP3     OH2      OT      -0.834000       15.9994           0
     24210 TIP3     2287     TIP3     H1       HT       0.417000       1.00800           0
     24211 TIP3     2287     TIP3     H2       HT       0.417000       1.00800           0
     24212 TIP3     2288     TIP3     OH2      OT      -0.834000       15.9994           0
     24213 TIP3     2288     TIP3     H1       HT       0.417000       1.00800           0
     24214 TIP3     2288     TIP3     H2       HT       0.417000       1.00800           0
     24215 TIP3     2289     TIP3     OH2      OT      -0.834000       15.9994           0
     24216 TIP3     2289     TIP3     H1       HT       0.417000       1.00800           0
     24217 TIP3     2289     TIP3     H2       HT       0.417000       1.00800           0
     24218 TIP3     2290     TIP3     OH2      OT      -0.834000       15.9994           0
     24219 TIP3     2290     TIP3     H1       HT       0.417000       1.00800           0
     24220 TIP3     2290     TIP3     H2       HT       0.417000       1.00800           0
     24221 TIP3     2291     TIP3     OH2      OT      -0.834000       15.9994           0
     24222 TIP3     2291     TIP3     H1       HT       0.417000       1.00800           0
     24223 TIP3     2291     TIP3     H2       HT       0.417000       1.00800           0
     24224 TIP3     2292     TIP3     OH2      OT      -0.834000       15.9994           0
     24225 TIP3     2292     TIP3     H1       HT       0.417000       1.00800           0
     24226 TIP3     2292     TIP3     H2       HT       0.417000       1.00800           0
     24227 TIP3     2293     TIP3     OH2      OT      -0.834000       15.9994           0
     24228 TIP3     2293     TIP3     H1       HT       0.417000       1.00800           0
     24229 TIP3     2293     TIP3     H2       HT       0.417000       1.00800           0
     24230 TIP3     2294     TIP3     OH2      OT      -0.834000       15.9994           0
     24231 TIP3     2294     TIP3     H1       HT       0.417000       1.00800           0
     24232 TIP3     2294     TIP3     H2       HT       0.417000       1.00800           0
     24233 TIP3     2295     TIP3     OH2      OT      -0.834000       15.9994           0
     24234 TIP3     2295     TIP3     H1       HT       0.417000       1.00800           0
     24235 TIP3     2295     TIP3     H2       HT       0.417000       1.00800           0
     24236 TIP3     2296     TIP3     OH2      OT      -0.834000       15.9994           0
     24237 TIP3     2296     TIP3     H1       HT       0.417000       1.00800           0
     24238 TIP3     2296     TIP3     H2       HT       0.417000       1.00800           0
     24239 TIP3     2297     TIP3     OH2      OT      -0.834000       15.9994           0
     24240 TIP3     2297     TIP3     H1       HT       0.417000       1.00800           0
     24241 TIP3     2297     TIP3     H2       HT       0.417000       1.00800           0
     24242 TIP3     2298     TIP3     OH2      OT      -0.834000       15.9994           0
     24243 TIP3     2298     TIP3     H1       HT       0.417000       1.00800           0
     24244 TIP3     2298     TIP3     H2       HT       0.417000       1.00800           0
     24245 TIP3     2299     TIP3     OH2      OT      -0.834000       15.9994           0
     24246 TIP3     2299     TIP3     H1       HT       0.417000       1.00800           0
     24247 TIP3     2299     TIP3     H2       HT       0.417000       1.00800           0
     24248 TIP3     2300     TIP3     OH2      OT      -0.834000       15.9994           0
     24249 TIP3     2300     TIP3     H1       HT       0.417000       1.00800           0
     24250 TIP3     2300     TIP3     H2       HT       0.417000       1.00800           0
     24251 TIP3     2301     TIP3     OH2      OT      -0.834000       15.9994           0
     24252 TIP3     2301     TIP3     H1       HT       0.417000       1.00800           0
     24253 TIP3     2301     TIP3     H2       HT       0.417000       1.00800           0
     24254 TIP3     2302     TIP3     OH2      OT      -0.834000       15.9994           0
     24255 TIP3     2302     TIP3     H1       HT       0.417000       1.00800           0
     24256 TIP3     2302     TIP3     H2       HT       0.417000       1.00800           0
     24257 TIP3     2303     TIP3     OH2      OT      -0.834000       15.9994           0
     24258 TIP3     2303     TIP3     H1       HT       0.417000       1.00800           0
     24259 TIP3     2303     TIP3     H2       HT       0.417000       1.00800           0
     24260 TIP3     2304     TIP3     OH2      OT      -0.834000       15.9994           0
     24261 TIP3     2304     TIP3     H1       HT       0.417000       1.00800           0
     24262 TIP3     2304     TIP3     H2       HT       0.417000       1.00800           0
     24263 TIP3     2305     TIP3     OH2      OT      -0.834000       15.9994           0
     24264 TIP3     2305     TIP3     H1       HT       0.417000       1.00800           0
     24265 TIP3     2305     TIP3     H2       HT       0.417000       1.00800           0
     24266 TIP3     2306     TIP3     OH2      OT      -0.834000       15.9994           0
     24267 TIP3     2306     TIP3     H1       HT       0.417000       1.00800           0
     24268 TIP3     2306     TIP3     H2       HT       0.417000       1.00800           0
     24269 TIP3     2307     TIP3     OH2      OT      -0.834000       15.9994           0
     24270 TIP3     2307     TIP3     H1       HT       0.417000       1.00800           0
     24271 TIP3     2307     TIP3     H2       HT       0.417000       1.00800           0
     24272 TIP3     2308     TIP3     OH2      OT      -0.834000       15.9994           0
     24273 TIP3     2308     TIP3     H1       HT       0.417000       1.00800           0
     24274 TIP3     2308     TIP3     H2       HT       0.417000       1.00800           0
     24275 TIP3     2309     TIP3     OH2      OT      -0.834000       15.9994           0
     24276 TIP3     2309     TIP3     H1       HT       0.417000       1.00800           0
     24277 TIP3     2309     TIP3     H2       HT       0.417000       1.00800           0
     24278 TIP3     2310     TIP3     OH2      OT      -0.834000       15.9994           0
     24279 TIP3     2310     TIP3     H1       HT       0.417000       1.00800           0
     24280 TIP3     2310     TIP3     H2       HT       0.417000       1.00800           0
     24281 TIP3     2311     TIP3     OH2      OT      -0.834000       15.9994           0
     24282 TIP3     2311     TIP3     H1       HT       0.417000       1.00800           0
     24283 TIP3     2311     TIP3     H2       HT       0.417000       1.00800           0
     24284 TIP3     2312     TIP3     OH2      OT      -0.834000       15.9994           0
     24285 TIP3     2312     TIP3     H1       HT       0.417000       1.00800           0
     24286 TIP3     2312     TIP3     H2       HT       0.417000       1.00800           0
     24287 TIP3     2313     TIP3     OH2      OT      -0.834000       15.9994           0
     24288 TIP3     2313     TIP3     H1       HT       0.417000       1.00800           0
     24289 TIP3     2313     TIP3     H2       HT       0.417000       1.00800           0
     24290 TIP3     2314     TIP3     OH2      OT      -0.834000       15.9994           0
     24291 TIP3     2314     TIP3     H1       HT       0.417000       1.00800           0
     24292 TIP3     2314     TIP3     H2       HT       0.417000       1.00800           0
     24293 TIP3     2315     TIP3     OH2      OT      -0.834000       15.9994           0
     24294 TIP3     2315     TIP3     H1       HT       0.417000       1.00800           0
     24295 TIP3     2315     TIP3     H2       HT       0.417000       1.00800           0
     24296 TIP3     2316     TIP3     OH2      OT      -0.834000       15.9994           0
     24297 TIP3     2316     TIP3     H1       HT       0.417000       1.00800           0
     24298 TIP3     2316     TIP3     H2       HT       0.417000       1.00800           0
     24299 TIP3     2317     TIP3     OH2      OT      -0.834000       15.9994           0
     24300 TIP3     2317     TIP3     H1       HT       0.417000       1.00800           0
     24301 TIP3     2317     TIP3     H2       HT       0.417000       1.00800           0
     24302 TIP3     2318     TIP3     OH2      OT      -0.834000       15.9994           0
     24303 TIP3     2318     TIP3     H1       HT       0.417000       1.00800           0
     24304 TIP3     2318     TIP3     H2       HT       0.417000       1.00800           0
     24305 TIP3     2319     TIP3     OH2      OT      -0.834000       15.9994           0
     24306 TIP3     2319     TIP3     H1       HT       0.417000       1.00800           0
     24307 TIP3     2319     TIP3     H2       HT       0.417000       1.00800           0
     24308 TIP3     2320     TIP3     OH2      OT      -0.834000       15.9994           0
     24309 TIP3     2320     TIP3     H1       HT       0.417000       1.00800           0
     24310 TIP3     2320     TIP3     H2       HT       0.417000       1.00800           0
     24311 TIP3     2321     TIP3     OH2      OT      -0.834000       15.9994           0
     24312 TIP3     2321     TIP3     H1       HT       0.417000       1.00800           0
     24313 TIP3     2321     TIP3     H2       HT       0.417000       1.00800           0
     24314 TIP3     2322     TIP3     OH2      OT      -0.834000       15.9994           0
     24315 TIP3     2322     TIP3     H1       HT       0.417000       1.00800           0
     24316 TIP3     2322     TIP3     H2       HT       0.417000       1.00800           0
     24317 TIP3     2323     TIP3     OH2      OT      -0.834000       15.9994           0
     24318 TIP3     2323     TIP3     H1       HT       0.417000       1.00800           0
     24319 TIP3     2323     TIP3     H2       HT       0.417000       1.00800           0
     24320 TIP3     2324     TIP3     OH2      OT      -0.834000       15.9994           0
     24321 TIP3     2324     TIP3     H1       HT       0.417000       1.00800           0
     24322 TIP3     2324     TIP3     H2       HT       0.417000       1.00800           0
     24323 TIP3     2325     TIP3     OH2      OT      -0.834000       15.9994           0
     24324 TIP3     2325     TIP3     H1       HT       0.417000       1.00800           0
     24325 TIP3     2325     TIP3     H2       HT       0.417000       1.00800           0
     24326 TIP3     2326     TIP3     OH2      OT      -0.834000       15.9994           0
     24327 TIP3     2326     TIP3     H1       HT       0.417000       1.00800           0
     24328 TIP3     2326     TIP3     H2       HT       0.417000       1.00800           0
     24329 TIP3     2327     TIP3     OH2      OT      -0.834000       15.9994           0
     24330 TIP3     2327     TIP3     H1       HT       0.417000       1.00800           0
     24331 TIP3     2327     TIP3     H2       HT       0.417000       1.00800           0
     24332 TIP3     2328     TIP3     OH2      OT      -0.834000       15.9994           0
     24333 TIP3     2328     TIP3     H1       HT       0.417000       1.00800           0
     24334 TIP3     2328     TIP3     H2       HT       0.417000       1.00800           0
     24335 TIP3     2329     TIP3     OH2      OT      -0.834000       15.9994           0
     24336 TIP3     2329     TIP3     H1       HT       0.417000       1.00800           0
     24337 TIP3     2329     TIP3     H2       HT       0.417000       1.00800           0
     24338 TIP3     2330     TIP3     OH2      OT      -0.834000       15.9994           0
     24339 TIP3     2330     TIP3     H1       HT       0.417000       1.00800           0
     24340 TIP3     2330     TIP3     H2       HT       0.417000       1.00800           0
     24341 TIP3     2331     TIP3     OH2      OT      -0.834000       15.9994           0
     24342 TIP3     2331     TIP3     H1       HT       0.417000       1.00800           0
     24343 TIP3     2331     TIP3     H2       HT       0.417000       1.00800           0
     24344 TIP3     2332     TIP3     OH2      OT      -0.834000       15.9994           0
     24345 TIP3     2332     TIP3     H1       HT       0.417000       1.00800           0
     24346 TIP3     2332     TIP3     H2       HT       0.417000       1.00800           0
     24347 TIP3     2333     TIP3     OH2      OT      -0.834000       15.9994           0
     24348 TIP3     2333     TIP3     H1       HT       0.417000       1.00800           0
     24349 TIP3     2333     TIP3     H2       HT       0.417000       1.00800           0
     24350 TIP3     2334     TIP3     OH2      OT      -0.834000       15.9994           0
     24351 TIP3     2334     TIP3     H1       HT       0.417000       1.00800           0
     24352 TIP3     2334     TIP3     H2       HT       0.417000       1.00800           0
     24353 TIP3     2335     TIP3     OH2      OT      -0.834000       15.9994           0
     24354 TIP3     2335     TIP3     H1       HT       0.417000       1.00800           0
     24355 TIP3     2335     TIP3     H2       HT       0.417000       1.00800           0
     24356 TIP3     2336     TIP3     OH2      OT      -0.834000       15.9994           0
     24357 TIP3     2336     TIP3     H1       HT       0.417000       1.00800           0
     24358 TIP3     2336     TIP3     H2       HT       0.417000       1.00800           0
     24359 TIP3     2337     TIP3     OH2      OT      -0.834000       15.9994           0
     24360 TIP3     2337     TIP3     H1       HT       0.417000       1.00800           0
     24361 TIP3     2337     TIP3     H2       HT       0.417000       1.00800           0
     24362 TIP3     2338     TIP3     OH2      OT      -0.834000       15.9994           0
     24363 TIP3     2338     TIP3     H1       HT       0.417000       1.00800           0
     24364 TIP3     2338     TIP3     H2       HT       0.417000       1.00800           0
     24365 TIP3     2339     TIP3     OH2      OT      -0.834000       15.9994           0
     24366 TIP3     2339     TIP3     H1       HT       0.417000       1.00800           0
     24367 TIP3     2339     TIP3     H2       HT       0.417000       1.00800           0
     24368 TIP3     2340     TIP3     OH2      OT      -0.834000       15.9994           0
     24369 TIP3     2340     TIP3     H1       HT       0.417000       1.00800           0
     24370 TIP3     2340     TIP3     H2       HT       0.417000       1.00800           0
     24371 TIP3     2341     TIP3     OH2      OT      -0.834000       15.9994           0
     24372 TIP3     2341     TIP3     H1       HT       0.417000       1.00800           0
     24373 TIP3     2341     TIP3     H2       HT       0.417000       1.00800           0
     24374 TIP3     2342     TIP3     OH2      OT      -0.834000       15.9994           0
     24375 TIP3     2342     TIP3     H1       HT       0.417000       1.00800           0
     24376 TIP3     2342     TIP3     H2       HT       0.417000       1.00800           0
     24377 TIP3     2343     TIP3     OH2      OT      -0.834000       15.9994           0
     24378 TIP3     2343     TIP3     H1       HT       0.417000       1.00800           0
     24379 TIP3     2343     TIP3     H2       HT       0.417000       1.00800           0
     24380 TIP3     2344     TIP3     OH2      OT      -0.834000       15.9994           0
     24381 TIP3     2344     TIP3     H1       HT       0.417000       1.00800           0
     24382 TIP3     2344     TIP3     H2       HT       0.417000       1.00800           0
     24383 TIP3     2345     TIP3     OH2      OT      -0.834000       15.9994           0
     24384 TIP3     2345     TIP3     H1       HT       0.417000       1.00800           0
     24385 TIP3     2345     TIP3     H2       HT       0.417000       1.00800           0
     24386 TIP3     2346     TIP3     OH2      OT      -0.834000       15.9994           0
     24387 TIP3     2346     TIP3     H1       HT       0.417000       1.00800           0
     24388 TIP3     2346     TIP3     H2       HT       0.417000       1.00800           0
     24389 TIP3     2347     TIP3     OH2      OT      -0.834000       15.9994           0
     24390 TIP3     2347     TIP3     H1       HT       0.417000       1.00800           0
     24391 TIP3     2347     TIP3     H2       HT       0.417000       1.00800           0
     24392 TIP3     2348     TIP3     OH2      OT      -0.834000       15.9994           0
     24393 TIP3     2348     TIP3     H1       HT       0.417000       1.00800           0
     24394 TIP3     2348     TIP3     H2       HT       0.417000       1.00800           0
     24395 TIP3     2349     TIP3     OH2      OT      -0.834000       15.9994           0
     24396 TIP3     2349     TIP3     H1       HT       0.417000       1.00800           0
     24397 TIP3     2349     TIP3     H2       HT       0.417000       1.00800           0
     24398 TIP3     2350     TIP3     OH2      OT      -0.834000       15.9994           0
     24399 TIP3     2350     TIP3     H1       HT       0.417000       1.00800           0
     24400 TIP3     2350     TIP3     H2       HT       0.417000       1.00800           0
     24401 TIP3     2351     TIP3     OH2      OT      -0.834000       15.9994           0
     24402 TIP3     2351     TIP3     H1       HT       0.417000       1.00800           0
     24403 TIP3     2351     TIP3     H2       HT       0.417000       1.00800           0
     24404 TIP3     2352     TIP3     OH2      OT      -0.834000       15.9994           0
     24405 TIP3     2352     TIP3     H1       HT       0.417000       1.00800           0
     24406 TIP3     2352     TIP3     H2       HT       0.417000       1.00800           0
     24407 TIP3     2353     TIP3     OH2      OT      -0.834000       15.9994           0
     24408 TIP3     2353     TIP3     H1       HT       0.417000       1.00800           0
     24409 TIP3     2353     TIP3     H2       HT       0.417000       1.00800           0
     24410 TIP3     2354     TIP3     OH2      OT      -0.834000       15.9994           0
     24411 TIP3     2354     TIP3     H1       HT       0.417000       1.00800           0
     24412 TIP3     2354     TIP3     H2       HT       0.417000       1.00800           0
     24413 TIP3     2355     TIP3     OH2      OT      -0.834000       15.9994           0
     24414 TIP3     2355     TIP3     H1       HT       0.417000       1.00800           0
     24415 TIP3     2355     TIP3     H2       HT       0.417000       1.00800           0
     24416 TIP3     2356     TIP3     OH2      OT      -0.834000       15.9994           0
     24417 TIP3     2356     TIP3     H1       HT       0.417000       1.00800           0
     24418 TIP3     2356     TIP3     H2       HT       0.417000       1.00800           0
     24419 TIP3     2357     TIP3     OH2      OT      -0.834000       15.9994           0
     24420 TIP3     2357     TIP3     H1       HT       0.417000       1.00800           0
     24421 TIP3     2357     TIP3     H2       HT       0.417000       1.00800           0
     24422 TIP3     2358     TIP3     OH2      OT      -0.834000       15.9994           0
     24423 TIP3     2358     TIP3     H1       HT       0.417000       1.00800           0
     24424 TIP3     2358     TIP3     H2       HT       0.417000       1.00800           0
     24425 TIP3     2359     TIP3     OH2      OT      -0.834000       15.9994           0
     24426 TIP3     2359     TIP3     H1       HT       0.417000       1.00800           0
     24427 TIP3     2359     TIP3     H2       HT       0.417000       1.00800           0
     24428 TIP3     2360     TIP3     OH2      OT      -0.834000       15.9994           0
     24429 TIP3     2360     TIP3     H1       HT       0.417000       1.00800           0
     24430 TIP3     2360     TIP3     H2       HT       0.417000       1.00800           0
     24431 TIP3     2361     TIP3     OH2      OT      -0.834000       15.9994           0
     24432 TIP3     2361     TIP3     H1       HT       0.417000       1.00800           0
     24433 TIP3     2361     TIP3     H2       HT       0.417000       1.00800           0
     24434 TIP3     2362     TIP3     OH2      OT      -0.834000       15.9994           0
     24435 TIP3     2362     TIP3     H1       HT       0.417000       1.00800           0
     24436 TIP3     2362     TIP3     H2       HT       0.417000       1.00800           0
     24437 TIP3     2363     TIP3     OH2      OT      -0.834000       15.9994           0
     24438 TIP3     2363     TIP3     H1       HT       0.417000       1.00800           0
     24439 TIP3     2363     TIP3     H2       HT       0.417000       1.00800           0
     24440 TIP3     2364     TIP3     OH2      OT      -0.834000       15.9994           0
     24441 TIP3     2364     TIP3     H1       HT       0.417000       1.00800           0
     24442 TIP3     2364     TIP3     H2       HT       0.417000       1.00800           0
     24443 TIP3     2365     TIP3     OH2      OT      -0.834000       15.9994           0
     24444 TIP3     2365     TIP3     H1       HT       0.417000       1.00800           0
     24445 TIP3     2365     TIP3     H2       HT       0.417000       1.00800           0
     24446 TIP3     2366     TIP3     OH2      OT      -0.834000       15.9994           0
     24447 TIP3     2366     TIP3     H1       HT       0.417000       1.00800           0
     24448 TIP3     2366     TIP3     H2       HT       0.417000       1.00800           0
     24449 TIP3     2367     TIP3     OH2      OT      -0.834000       15.9994           0
     24450 TIP3     2367     TIP3     H1       HT       0.417000       1.00800           0
     24451 TIP3     2367     TIP3     H2       HT       0.417000       1.00800           0
     24452 TIP3     2368     TIP3     OH2      OT      -0.834000       15.9994           0
     24453 TIP3     2368     TIP3     H1       HT       0.417000       1.00800           0
     24454 TIP3     2368     TIP3     H2       HT       0.417000       1.00800           0
     24455 TIP3     2369     TIP3     OH2      OT      -0.834000       15.9994           0
     24456 TIP3     2369     TIP3     H1       HT       0.417000       1.00800           0
     24457 TIP3     2369     TIP3     H2       HT       0.417000       1.00800           0
     24458 TIP3     2370     TIP3     OH2      OT      -0.834000       15.9994           0
     24459 TIP3     2370     TIP3     H1       HT       0.417000       1.00800           0
     24460 TIP3     2370     TIP3     H2       HT       0.417000       1.00800           0
     24461 TIP3     2371     TIP3     OH2      OT      -0.834000       15.9994           0
     24462 TIP3     2371     TIP3     H1       HT       0.417000       1.00800           0
     24463 TIP3     2371     TIP3     H2       HT       0.417000       1.00800           0
     24464 TIP3     2372     TIP3     OH2      OT      -0.834000       15.9994           0
     24465 TIP3     2372     TIP3     H1       HT       0.417000       1.00800           0
     24466 TIP3     2372     TIP3     H2       HT       0.417000       1.00800           0
     24467 TIP3     2373     TIP3     OH2      OT      -0.834000       15.9994           0
     24468 TIP3     2373     TIP3     H1       HT       0.417000       1.00800           0
     24469 TIP3     2373     TIP3     H2       HT       0.417000       1.00800           0
     24470 TIP3     2374     TIP3     OH2      OT      -0.834000       15.9994           0
     24471 TIP3     2374     TIP3     H1       HT       0.417000       1.00800           0
     24472 TIP3     2374     TIP3     H2       HT       0.417000       1.00800           0
     24473 TIP3     2375     TIP3     OH2      OT      -0.834000       15.9994           0
     24474 TIP3     2375     TIP3     H1       HT       0.417000       1.00800           0
     24475 TIP3     2375     TIP3     H2       HT       0.417000       1.00800           0
     24476 TIP3     2376     TIP3     OH2      OT      -0.834000       15.9994           0
     24477 TIP3     2376     TIP3     H1       HT       0.417000       1.00800           0
     24478 TIP3     2376     TIP3     H2       HT       0.417000       1.00800           0
     24479 TIP3     2377     TIP3     OH2      OT      -0.834000       15.9994           0
     24480 TIP3     2377     TIP3     H1       HT       0.417000       1.00800           0
     24481 TIP3     2377     TIP3     H2       HT       0.417000       1.00800           0
     24482 TIP3     2378     TIP3     OH2      OT      -0.834000       15.9994           0
     24483 TIP3     2378     TIP3     H1       HT       0.417000       1.00800           0
     24484 TIP3     2378     TIP3     H2       HT       0.417000       1.00800           0
     24485 TIP3     2379     TIP3     OH2      OT      -0.834000       15.9994           0
     24486 TIP3     2379     TIP3     H1       HT       0.417000       1.00800           0
     24487 TIP3     2379     TIP3     H2       HT       0.417000       1.00800           0
     24488 TIP3     2380     TIP3     OH2      OT      -0.834000       15.9994           0
     24489 TIP3     2380     TIP3     H1       HT       0.417000       1.00800           0
     24490 TIP3     2380     TIP3     H2       HT       0.417000       1.00800           0
     24491 TIP3     2381     TIP3     OH2      OT      -0.834000       15.9994           0
     24492 TIP3     2381     TIP3     H1       HT       0.417000       1.00800           0
     24493 TIP3     2381     TIP3     H2       HT       0.417000       1.00800           0
     24494 TIP3     2382     TIP3     OH2      OT      -0.834000       15.9994           0
     24495 TIP3     2382     TIP3     H1       HT       0.417000       1.00800           0
     24496 TIP3     2382     TIP3     H2       HT       0.417000       1.00800           0
     24497 TIP3     2383     TIP3     OH2      OT      -0.834000       15.9994           0
     24498 TIP3     2383     TIP3     H1       HT       0.417000       1.00800           0
     24499 TIP3     2383     TIP3     H2       HT       0.417000       1.00800           0
     24500 TIP3     2384     TIP3     OH2      OT      -0.834000       15.9994           0
     24501 TIP3     2384     TIP3     H1       HT       0.417000       1.00800           0
     24502 TIP3     2384     TIP3     H2       HT       0.417000       1.00800           0
     24503 TIP3     2385     TIP3     OH2      OT      -0.834000       15.9994           0
     24504 TIP3     2385     TIP3     H1       HT       0.417000       1.00800           0
     24505 TIP3     2385     TIP3     H2       HT       0.417000       1.00800           0
     24506 TIP3     2386     TIP3     OH2      OT      -0.834000       15.9994           0
     24507 TIP3     2386     TIP3     H1       HT       0.417000       1.00800           0
     24508 TIP3     2386     TIP3     H2       HT       0.417000       1.00800           0
     24509 TIP3     2387     TIP3     OH2      OT      -0.834000       15.9994           0
     24510 TIP3     2387     TIP3     H1       HT       0.417000       1.00800           0
     24511 TIP3     2387     TIP3     H2       HT       0.417000       1.00800           0
     24512 TIP3     2388     TIP3     OH2      OT      -0.834000       15.9994           0
     24513 TIP3     2388     TIP3     H1       HT       0.417000       1.00800           0
     24514 TIP3     2388     TIP3     H2       HT       0.417000       1.00800           0
     24515 TIP3     2389     TIP3     OH2      OT      -0.834000       15.9994           0
     24516 TIP3     2389     TIP3     H1       HT       0.417000       1.00800           0
     24517 TIP3     2389     TIP3     H2       HT       0.417000       1.00800           0
     24518 TIP3     2390     TIP3     OH2      OT      -0.834000       15.9994           0
     24519 TIP3     2390     TIP3     H1       HT       0.417000       1.00800           0
     24520 TIP3     2390     TIP3     H2       HT       0.417000       1.00800           0
     24521 TIP3     2391     TIP3     OH2      OT      -0.834000       15.9994           0
     24522 TIP3     2391     TIP3     H1       HT       0.417000       1.00800           0
     24523 TIP3     2391     TIP3     H2       HT       0.417000       1.00800           0
     24524 TIP3     2392     TIP3     OH2      OT      -0.834000       15.9994           0
     24525 TIP3     2392     TIP3     H1       HT       0.417000       1.00800           0
     24526 TIP3     2392     TIP3     H2       HT       0.417000       1.00800           0
     24527 TIP3     2393     TIP3     OH2      OT      -0.834000       15.9994           0
     24528 TIP3     2393     TIP3     H1       HT       0.417000       1.00800           0
     24529 TIP3     2393     TIP3     H2       HT       0.417000       1.00800           0
     24530 TIP3     2394     TIP3     OH2      OT      -0.834000       15.9994           0
     24531 TIP3     2394     TIP3     H1       HT       0.417000       1.00800           0
     24532 TIP3     2394     TIP3     H2       HT       0.417000       1.00800           0
     24533 TIP3     2395     TIP3     OH2      OT      -0.834000       15.9994           0
     24534 TIP3     2395     TIP3     H1       HT       0.417000       1.00800           0
     24535 TIP3     2395     TIP3     H2       HT       0.417000       1.00800           0
     24536 TIP3     2396     TIP3     OH2      OT      -0.834000       15.9994           0
     24537 TIP3     2396     TIP3     H1       HT       0.417000       1.00800           0
     24538 TIP3     2396     TIP3     H2       HT       0.417000       1.00800           0
     24539 TIP3     2397     TIP3     OH2      OT      -0.834000       15.9994           0
     24540 TIP3     2397     TIP3     H1       HT       0.417000       1.00800           0
     24541 TIP3     2397     TIP3     H2       HT       0.417000       1.00800           0
     24542 TIP3     2398     TIP3     OH2      OT      -0.834000       15.9994           0
     24543 TIP3     2398     TIP3     H1       HT       0.417000       1.00800           0
     24544 TIP3     2398     TIP3     H2       HT       0.417000       1.00800           0
     24545 TIP3     2399     TIP3     OH2      OT      -0.834000       15.9994           0
     24546 TIP3     2399     TIP3     H1       HT       0.417000       1.00800           0
     24547 TIP3     2399     TIP3     H2       HT       0.417000       1.00800           0
     24548 TIP3     2400     TIP3     OH2      OT      -0.834000       15.9994           0
     24549 TIP3     2400     TIP3     H1       HT       0.417000       1.00800           0
     24550 TIP3     2400     TIP3     H2       HT       0.417000       1.00800           0
     24551 TIP3     2401     TIP3     OH2      OT      -0.834000       15.9994           0
     24552 TIP3     2401     TIP3     H1       HT       0.417000       1.00800           0
     24553 TIP3     2401     TIP3     H2       HT       0.417000       1.00800           0
     24554 TIP3     2402     TIP3     OH2      OT      -0.834000       15.9994           0
     24555 TIP3     2402     TIP3     H1       HT       0.417000       1.00800           0
     24556 TIP3     2402     TIP3     H2       HT       0.417000       1.00800           0
     24557 TIP3     2403     TIP3     OH2      OT      -0.834000       15.9994           0
     24558 TIP3     2403     TIP3     H1       HT       0.417000       1.00800           0
     24559 TIP3     2403     TIP3     H2       HT       0.417000       1.00800           0
     24560 TIP3     2404     TIP3     OH2      OT      -0.834000       15.9994           0
     24561 TIP3     2404     TIP3     H1       HT       0.417000       1.00800           0
     24562 TIP3     2404     TIP3     H2       HT       0.417000       1.00800           0
     24563 TIP3     2405     TIP3     OH2      OT      -0.834000       15.9994           0
     24564 TIP3     2405     TIP3     H1       HT       0.417000       1.00800           0
     24565 TIP3     2405     TIP3     H2       HT       0.417000       1.00800           0
     24566 TIP3     2406     TIP3     OH2      OT      -0.834000       15.9994           0
     24567 TIP3     2406     TIP3     H1       HT       0.417000       1.00800           0
     24568 TIP3     2406     TIP3     H2       HT       0.417000       1.00800           0
     24569 TIP3     2407     TIP3     OH2      OT      -0.834000       15.9994           0
     24570 TIP3     2407     TIP3     H1       HT       0.417000       1.00800           0
     24571 TIP3     2407     TIP3     H2       HT       0.417000       1.00800           0
     24572 TIP3     2408     TIP3     OH2      OT      -0.834000       15.9994           0
     24573 TIP3     2408     TIP3     H1       HT       0.417000       1.00800           0
     24574 TIP3     2408     TIP3     H2       HT       0.417000       1.00800           0
     24575 TIP3     2409     TIP3     OH2      OT      -0.834000       15.9994           0
     24576 TIP3     2409     TIP3     H1       HT       0.417000       1.00800           0
     24577 TIP3     2409     TIP3     H2       HT       0.417000       1.00800           0
     24578 TIP3     2410     TIP3     OH2      OT      -0.834000       15.9994           0
     24579 TIP3     2410     TIP3     H1       HT       0.417000       1.00800           0
     24580 TIP3     2410     TIP3     H2       HT       0.417000       1.00800           0
     24581 TIP3     2411     TIP3     OH2      OT      -0.834000       15.9994           0
     24582 TIP3     2411     TIP3     H1       HT       0.417000       1.00800           0
     24583 TIP3     2411     TIP3     H2       HT       0.417000       1.00800           0
     24584 TIP3     2412     TIP3     OH2      OT      -0.834000       15.9994           0
     24585 TIP3     2412     TIP3     H1       HT       0.417000       1.00800           0
     24586 TIP3     2412     TIP3     H2       HT       0.417000       1.00800           0
     24587 TIP3     2413     TIP3     OH2      OT      -0.834000       15.9994           0
     24588 TIP3     2413     TIP3     H1       HT       0.417000       1.00800           0
     24589 TIP3     2413     TIP3     H2       HT       0.417000       1.00800           0
     24590 TIP3     2414     TIP3     OH2      OT      -0.834000       15.9994           0
     24591 TIP3     2414     TIP3     H1       HT       0.417000       1.00800           0
     24592 TIP3     2414     TIP3     H2       HT       0.417000       1.00800           0
     24593 TIP3     2415     TIP3     OH2      OT      -0.834000       15.9994           0
     24594 TIP3     2415     TIP3     H1       HT       0.417000       1.00800           0
     24595 TIP3     2415     TIP3     H2       HT       0.417000       1.00800           0
     24596 TIP3     2416     TIP3     OH2      OT      -0.834000       15.9994           0
     24597 TIP3     2416     TIP3     H1       HT       0.417000       1.00800           0
     24598 TIP3     2416     TIP3     H2       HT       0.417000       1.00800           0
     24599 TIP3     2417     TIP3     OH2      OT      -0.834000       15.9994           0
     24600 TIP3     2417     TIP3     H1       HT       0.417000       1.00800           0
     24601 TIP3     2417     TIP3     H2       HT       0.417000       1.00800           0
     24602 TIP3     2418     TIP3     OH2      OT      -0.834000       15.9994           0
     24603 TIP3     2418     TIP3     H1       HT       0.417000       1.00800           0
     24604 TIP3     2418     TIP3     H2       HT       0.417000       1.00800           0
     24605 TIP3     2419     TIP3     OH2      OT      -0.834000       15.9994           0
     24606 TIP3     2419     TIP3     H1       HT       0.417000       1.00800           0
     24607 TIP3     2419     TIP3     H2       HT       0.417000       1.00800           0
     24608 TIP3     2420     TIP3     OH2      OT      -0.834000       15.9994           0
     24609 TIP3     2420     TIP3     H1       HT       0.417000       1.00800           0
     24610 TIP3     2420     TIP3     H2       HT       0.417000       1.00800           0
     24611 TIP3     2421     TIP3     OH2      OT      -0.834000       15.9994           0
     24612 TIP3     2421     TIP3     H1       HT       0.417000       1.00800           0
     24613 TIP3     2421     TIP3     H2       HT       0.417000       1.00800           0
     24614 TIP3     2422     TIP3     OH2      OT      -0.834000       15.9994           0
     24615 TIP3     2422     TIP3     H1       HT       0.417000       1.00800           0
     24616 TIP3     2422     TIP3     H2       HT       0.417000       1.00800           0
     24617 TIP3     2423     TIP3     OH2      OT      -0.834000       15.9994           0
     24618 TIP3     2423     TIP3     H1       HT       0.417000       1.00800           0
     24619 TIP3     2423     TIP3     H2       HT       0.417000       1.00800           0
     24620 TIP3     2424     TIP3     OH2      OT      -0.834000       15.9994           0
     24621 TIP3     2424     TIP3     H1       HT       0.417000       1.00800           0
     24622 TIP3     2424     TIP3     H2       HT       0.417000       1.00800           0
     24623 TIP3     2425     TIP3     OH2      OT      -0.834000       15.9994           0
     24624 TIP3     2425     TIP3     H1       HT       0.417000       1.00800           0
     24625 TIP3     2425     TIP3     H2       HT       0.417000       1.00800           0
     24626 TIP3     2426     TIP3     OH2      OT      -0.834000       15.9994           0
     24627 TIP3     2426     TIP3     H1       HT       0.417000       1.00800           0
     24628 TIP3     2426     TIP3     H2       HT       0.417000       1.00800           0
     24629 TIP3     2427     TIP3     OH2      OT      -0.834000       15.9994           0
     24630 TIP3     2427     TIP3     H1       HT       0.417000       1.00800           0
     24631 TIP3     2427     TIP3     H2       HT       0.417000       1.00800           0
     24632 TIP3     2428     TIP3     OH2      OT      -0.834000       15.9994           0
     24633 TIP3     2428     TIP3     H1       HT       0.417000       1.00800           0
     24634 TIP3     2428     TIP3     H2       HT       0.417000       1.00800           0
     24635 TIP3     2429     TIP3     OH2      OT      -0.834000       15.9994           0
     24636 TIP3     2429     TIP3     H1       HT       0.417000       1.00800           0
     24637 TIP3     2429     TIP3     H2       HT       0.417000       1.00800           0
     24638 TIP3     2430     TIP3     OH2      OT      -0.834000       15.9994           0
     24639 TIP3     2430     TIP3     H1       HT       0.417000       1.00800           0
     24640 TIP3     2430     TIP3     H2       HT       0.417000       1.00800           0
     24641 TIP3     2431     TIP3     OH2      OT      -0.834000       15.9994           0
     24642 TIP3     2431     TIP3     H1       HT       0.417000       1.00800           0
     24643 TIP3     2431     TIP3     H2       HT       0.417000       1.00800           0
     24644 TIP3     2432     TIP3     OH2      OT      -0.834000       15.9994           0
     24645 TIP3     2432     TIP3     H1       HT       0.417000       1.00800           0
     24646 TIP3     2432     TIP3     H2       HT       0.417000       1.00800           0
     24647 TIP3     2433     TIP3     OH2      OT      -0.834000       15.9994           0
     24648 TIP3     2433     TIP3     H1       HT       0.417000       1.00800           0
     24649 TIP3     2433     TIP3     H2       HT       0.417000       1.00800           0
     24650 TIP3     2434     TIP3     OH2      OT      -0.834000       15.9994           0
     24651 TIP3     2434     TIP3     H1       HT       0.417000       1.00800           0
     24652 TIP3     2434     TIP3     H2       HT       0.417000       1.00800           0
     24653 TIP3     2435     TIP3     OH2      OT      -0.834000       15.9994           0
     24654 TIP3     2435     TIP3     H1       HT       0.417000       1.00800           0
     24655 TIP3     2435     TIP3     H2       HT       0.417000       1.00800           0
     24656 TIP3     2436     TIP3     OH2      OT      -0.834000       15.9994           0
     24657 TIP3     2436     TIP3     H1       HT       0.417000       1.00800           0
     24658 TIP3     2436     TIP3     H2       HT       0.417000       1.00800           0
     24659 TIP3     2437     TIP3     OH2      OT      -0.834000       15.9994           0
     24660 TIP3     2437     TIP3     H1       HT       0.417000       1.00800           0
     24661 TIP3     2437     TIP3     H2       HT       0.417000       1.00800           0
     24662 TIP3     2438     TIP3     OH2      OT      -0.834000       15.9994           0
     24663 TIP3     2438     TIP3     H1       HT       0.417000       1.00800           0
     24664 TIP3     2438     TIP3     H2       HT       0.417000       1.00800           0
     24665 TIP3     2439     TIP3     OH2      OT      -0.834000       15.9994           0
     24666 TIP3     2439     TIP3     H1       HT       0.417000       1.00800           0
     24667 TIP3     2439     TIP3     H2       HT       0.417000       1.00800           0
     24668 TIP3     2440     TIP3     OH2      OT      -0.834000       15.9994           0
     24669 TIP3     2440     TIP3     H1       HT       0.417000       1.00800           0
     24670 TIP3     2440     TIP3     H2       HT       0.417000       1.00800           0
     24671 TIP3     2441     TIP3     OH2      OT      -0.834000       15.9994           0
     24672 TIP3     2441     TIP3     H1       HT       0.417000       1.00800           0
     24673 TIP3     2441     TIP3     H2       HT       0.417000       1.00800           0
     24674 TIP3     2442     TIP3     OH2      OT      -0.834000       15.9994           0
     24675 TIP3     2442     TIP3     H1       HT       0.417000       1.00800           0
     24676 TIP3     2442     TIP3     H2       HT       0.417000       1.00800           0
     24677 TIP3     2443     TIP3     OH2      OT      -0.834000       15.9994           0
     24678 TIP3     2443     TIP3     H1       HT       0.417000       1.00800           0
     24679 TIP3     2443     TIP3     H2       HT       0.417000       1.00800           0
     24680 TIP3     2444     TIP3     OH2      OT      -0.834000       15.9994           0
     24681 TIP3     2444     TIP3     H1       HT       0.417000       1.00800           0
     24682 TIP3     2444     TIP3     H2       HT       0.417000       1.00800           0
     24683 TIP3     2445     TIP3     OH2      OT      -0.834000       15.9994           0
     24684 TIP3     2445     TIP3     H1       HT       0.417000       1.00800           0
     24685 TIP3     2445     TIP3     H2       HT       0.417000       1.00800           0
     24686 TIP3     2446     TIP3     OH2      OT      -0.834000       15.9994           0
     24687 TIP3     2446     TIP3     H1       HT       0.417000       1.00800           0
     24688 TIP3     2446     TIP3     H2       HT       0.417000       1.00800           0
     24689 TIP3     2447     TIP3     OH2      OT      -0.834000       15.9994           0
     24690 TIP3     2447     TIP3     H1       HT       0.417000       1.00800           0
     24691 TIP3     2447     TIP3     H2       HT       0.417000       1.00800           0
     24692 TIP3     2448     TIP3     OH2      OT      -0.834000       15.9994           0
     24693 TIP3     2448     TIP3     H1       HT       0.417000       1.00800           0
     24694 TIP3     2448     TIP3     H2       HT       0.417000       1.00800           0
     24695 TIP3     2449     TIP3     OH2      OT      -0.834000       15.9994           0
     24696 TIP3     2449     TIP3     H1       HT       0.417000       1.00800           0
     24697 TIP3     2449     TIP3     H2       HT       0.417000       1.00800           0
     24698 TIP3     2450     TIP3     OH2      OT      -0.834000       15.9994           0
     24699 TIP3     2450     TIP3     H1       HT       0.417000       1.00800           0
     24700 TIP3     2450     TIP3     H2       HT       0.417000       1.00800           0
     24701 TIP3     2451     TIP3     OH2      OT      -0.834000       15.9994           0
     24702 TIP3     2451     TIP3     H1       HT       0.417000       1.00800           0
     24703 TIP3     2451     TIP3     H2       HT       0.417000       1.00800           0
     24704 TIP3     2452     TIP3     OH2      OT      -0.834000       15.9994           0
     24705 TIP3     2452     TIP3     H1       HT       0.417000       1.00800           0
     24706 TIP3     2452     TIP3     H2       HT       0.417000       1.00800           0
     24707 TIP3     2453     TIP3     OH2      OT      -0.834000       15.9994           0
     24708 TIP3     2453     TIP3     H1       HT       0.417000       1.00800           0
     24709 TIP3     2453     TIP3     H2       HT       0.417000       1.00800           0
     24710 TIP3     2454     TIP3     OH2      OT      -0.834000       15.9994           0
     24711 TIP3     2454     TIP3     H1       HT       0.417000       1.00800           0
     24712 TIP3     2454     TIP3     H2       HT       0.417000       1.00800           0
     24713 TIP3     2455     TIP3     OH2      OT      -0.834000       15.9994           0
     24714 TIP3     2455     TIP3     H1       HT       0.417000       1.00800           0
     24715 TIP3     2455     TIP3     H2       HT       0.417000       1.00800           0
     24716 TIP3     2456     TIP3     OH2      OT      -0.834000       15.9994           0
     24717 TIP3     2456     TIP3     H1       HT       0.417000       1.00800           0
     24718 TIP3     2456     TIP3     H2       HT       0.417000       1.00800           0
     24719 TIP3     2457     TIP3     OH2      OT      -0.834000       15.9994           0
     24720 TIP3     2457     TIP3     H1       HT       0.417000       1.00800           0
     24721 TIP3     2457     TIP3     H2       HT       0.417000       1.00800           0
     24722 TIP3     2458     TIP3     OH2      OT      -0.834000       15.9994           0
     24723 TIP3     2458     TIP3     H1       HT       0.417000       1.00800           0
     24724 TIP3     2458     TIP3     H2       HT       0.417000       1.00800           0
     24725 TIP3     2459     TIP3     OH2      OT      -0.834000       15.9994           0
     24726 TIP3     2459     TIP3     H1       HT       0.417000       1.00800           0
     24727 TIP3     2459     TIP3     H2       HT       0.417000       1.00800           0
     24728 TIP3     2460     TIP3     OH2      OT      -0.834000       15.9994           0
     24729 TIP3     2460     TIP3     H1       HT       0.417000       1.00800           0
     24730 TIP3     2460     TIP3     H2       HT       0.417000       1.00800           0
     24731 TIP3     2461     TIP3     OH2      OT      -0.834000       15.9994           0
     24732 TIP3     2461     TIP3     H1       HT       0.417000       1.00800           0
     24733 TIP3     2461     TIP3     H2       HT       0.417000       1.00800           0
     24734 TIP3     2462     TIP3     OH2      OT      -0.834000       15.9994           0
     24735 TIP3     2462     TIP3     H1       HT       0.417000       1.00800           0
     24736 TIP3     2462     TIP3     H2       HT       0.417000       1.00800           0
     24737 TIP3     2463     TIP3     OH2      OT      -0.834000       15.9994           0
     24738 TIP3     2463     TIP3     H1       HT       0.417000       1.00800           0
     24739 TIP3     2463     TIP3     H2       HT       0.417000       1.00800           0
     24740 TIP3     2464     TIP3     OH2      OT      -0.834000       15.9994           0
     24741 TIP3     2464     TIP3     H1       HT       0.417000       1.00800           0
     24742 TIP3     2464     TIP3     H2       HT       0.417000       1.00800           0
     24743 TIP3     2465     TIP3     OH2      OT      -0.834000       15.9994           0
     24744 TIP3     2465     TIP3     H1       HT       0.417000       1.00800           0
     24745 TIP3     2465     TIP3     H2       HT       0.417000       1.00800           0
     24746 TIP3     2466     TIP3     OH2      OT      -0.834000       15.9994           0
     24747 TIP3     2466     TIP3     H1       HT       0.417000       1.00800           0
     24748 TIP3     2466     TIP3     H2       HT       0.417000       1.00800           0
     24749 TIP3     2467     TIP3     OH2      OT      -0.834000       15.9994           0
     24750 TIP3     2467     TIP3     H1       HT       0.417000       1.00800           0
     24751 TIP3     2467     TIP3     H2       HT       0.417000       1.00800           0
     24752 TIP3     2468     TIP3     OH2      OT      -0.834000       15.9994           0
     24753 TIP3     2468     TIP3     H1       HT       0.417000       1.00800           0
     24754 TIP3     2468     TIP3     H2       HT       0.417000       1.00800           0
     24755 TIP3     2469     TIP3     OH2      OT      -0.834000       15.9994           0
     24756 TIP3     2469     TIP3     H1       HT       0.417000       1.00800           0
     24757 TIP3     2469     TIP3     H2       HT       0.417000       1.00800           0
     24758 TIP3     2470     TIP3     OH2      OT      -0.834000       15.9994           0
     24759 TIP3     2470     TIP3     H1       HT       0.417000       1.00800           0
     24760 TIP3     2470     TIP3     H2       HT       0.417000       1.00800           0
     24761 TIP3     2471     TIP3     OH2      OT      -0.834000       15.9994           0
     24762 TIP3     2471     TIP3     H1       HT       0.417000       1.00800           0
     24763 TIP3     2471     TIP3     H2       HT       0.417000       1.00800           0
     24764 TIP3     2472     TIP3     OH2      OT      -0.834000       15.9994           0
     24765 TIP3     2472     TIP3     H1       HT       0.417000       1.00800           0
     24766 TIP3     2472     TIP3     H2       HT       0.417000       1.00800           0
     24767 TIP3     2473     TIP3     OH2      OT      -0.834000       15.9994           0
     24768 TIP3     2473     TIP3     H1       HT       0.417000       1.00800           0
     24769 TIP3     2473     TIP3     H2       HT       0.417000       1.00800           0
     24770 TIP3     2474     TIP3     OH2      OT      -0.834000       15.9994           0
     24771 TIP3     2474     TIP3     H1       HT       0.417000       1.00800           0
     24772 TIP3     2474     TIP3     H2       HT       0.417000       1.00800           0
     24773 TIP3     2475     TIP3     OH2      OT      -0.834000       15.9994           0
     24774 TIP3     2475     TIP3     H1       HT       0.417000       1.00800           0
     24775 TIP3     2475     TIP3     H2       HT       0.417000       1.00800           0
     24776 TIP3     2476     TIP3     OH2      OT      -0.834000       15.9994           0
     24777 TIP3     2476     TIP3     H1       HT       0.417000       1.00800           0
     24778 TIP3     2476     TIP3     H2       HT       0.417000       1.00800           0
     24779 TIP3     2477     TIP3     OH2      OT      -0.834000       15.9994           0
     24780 TIP3     2477     TIP3     H1       HT       0.417000       1.00800           0
     24781 TIP3     2477     TIP3     H2       HT       0.417000       1.00800           0
     24782 TIP3     2478     TIP3     OH2      OT      -0.834000       15.9994           0
     24783 TIP3     2478     TIP3     H1       HT       0.417000       1.00800           0
     24784 TIP3     2478     TIP3     H2       HT       0.417000       1.00800           0
     24785 TIP3     2479     TIP3     OH2      OT      -0.834000       15.9994           0
     24786 TIP3     2479     TIP3     H1       HT       0.417000       1.00800           0
     24787 TIP3     2479     TIP3     H2       HT       0.417000       1.00800           0
     24788 TIP3     2480     TIP3     OH2      OT      -0.834000       15.9994           0
     24789 TIP3     2480     TIP3     H1       HT       0.417000       1.00800           0
     24790 TIP3     2480     TIP3     H2       HT       0.417000       1.00800           0
     24791 TIP3     2481     TIP3     OH2      OT      -0.834000       15.9994           0
     24792 TIP3     2481     TIP3     H1       HT       0.417000       1.00800           0
     24793 TIP3     2481     TIP3     H2       HT       0.417000       1.00800           0
     24794 TIP3     2482     TIP3     OH2      OT      -0.834000       15.9994           0
     24795 TIP3     2482     TIP3     H1       HT       0.417000       1.00800           0
     24796 TIP3     2482     TIP3     H2       HT       0.417000       1.00800           0
     24797 TIP3     2483     TIP3     OH2      OT      -0.834000       15.9994           0
     24798 TIP3     2483     TIP3     H1       HT       0.417000       1.00800           0
     24799 TIP3     2483     TIP3     H2       HT       0.417000       1.00800           0
     24800 TIP3     2484     TIP3     OH2      OT      -0.834000       15.9994           0
     24801 TIP3     2484     TIP3     H1       HT       0.417000       1.00800           0
     24802 TIP3     2484     TIP3     H2       HT       0.417000       1.00800           0
     24803 TIP3     2485     TIP3     OH2      OT      -0.834000       15.9994           0
     24804 TIP3     2485     TIP3     H1       HT       0.417000       1.00800           0
     24805 TIP3     2485     TIP3     H2       HT       0.417000       1.00800           0
     24806 TIP3     2486     TIP3     OH2      OT      -0.834000       15.9994           0
     24807 TIP3     2486     TIP3     H1       HT       0.417000       1.00800           0
     24808 TIP3     2486     TIP3     H2       HT       0.417000       1.00800           0
     24809 TIP3     2487     TIP3     OH2      OT      -0.834000       15.9994           0
     24810 TIP3     2487     TIP3     H1       HT       0.417000       1.00800           0
     24811 TIP3     2487     TIP3     H2       HT       0.417000       1.00800           0
     24812 TIP3     2488     TIP3     OH2      OT      -0.834000       15.9994           0
     24813 TIP3     2488     TIP3     H1       HT       0.417000       1.00800           0
     24814 TIP3     2488     TIP3     H2       HT       0.417000       1.00800           0
     24815 TIP3     2489     TIP3     OH2      OT      -0.834000       15.9994           0
     24816 TIP3     2489     TIP3     H1       HT       0.417000       1.00800           0
     24817 TIP3     2489     TIP3     H2       HT       0.417000       1.00800           0
     24818 TIP3     2490     TIP3     OH2      OT      -0.834000       15.9994           0
     24819 TIP3     2490     TIP3     H1       HT       0.417000       1.00800           0
     24820 TIP3     2490     TIP3     H2       HT       0.417000       1.00800           0
     24821 TIP3     2491     TIP3     OH2      OT      -0.834000       15.9994           0
     24822 TIP3     2491     TIP3     H1       HT       0.417000       1.00800           0
     24823 TIP3     2491     TIP3     H2       HT       0.417000       1.00800           0
     24824 TIP3     2492     TIP3     OH2      OT      -0.834000       15.9994           0
     24825 TIP3     2492     TIP3     H1       HT       0.417000       1.00800           0
     24826 TIP3     2492     TIP3     H2       HT       0.417000       1.00800           0
     24827 TIP3     2493     TIP3     OH2      OT      -0.834000       15.9994           0
     24828 TIP3     2493     TIP3     H1       HT       0.417000       1.00800           0
     24829 TIP3     2493     TIP3     H2       HT       0.417000       1.00800           0
     24830 TIP3     2494     TIP3     OH2      OT      -0.834000       15.9994           0
     24831 TIP3     2494     TIP3     H1       HT       0.417000       1.00800           0
     24832 TIP3     2494     TIP3     H2       HT       0.417000       1.00800           0
     24833 TIP3     2495     TIP3     OH2      OT      -0.834000       15.9994           0
     24834 TIP3     2495     TIP3     H1       HT       0.417000       1.00800           0
     24835 TIP3     2495     TIP3     H2       HT       0.417000       1.00800           0
     24836 TIP3     2496     TIP3     OH2      OT      -0.834000       15.9994           0
     24837 TIP3     2496     TIP3     H1       HT       0.417000       1.00800           0
     24838 TIP3     2496     TIP3     H2       HT       0.417000       1.00800           0
     24839 TIP3     2497     TIP3     OH2      OT      -0.834000       15.9994           0
     24840 TIP3     2497     TIP3     H1       HT       0.417000       1.00800           0
     24841 TIP3     2497     TIP3     H2       HT       0.417000       1.00800           0
     24842 TIP3     2498     TIP3     OH2      OT      -0.834000       15.9994           0
     24843 TIP3     2498     TIP3     H1       HT       0.417000       1.00800           0
     24844 TIP3     2498     TIP3     H2       HT       0.417000       1.00800           0
     24845 TIP3     2499     TIP3     OH2      OT      -0.834000       15.9994           0
     24846 TIP3     2499     TIP3     H1       HT       0.417000       1.00800           0
     24847 TIP3     2499     TIP3     H2       HT       0.417000       1.00800           0
     24848 TIP3     2500     TIP3     OH2      OT      -0.834000       15.9994           0
     24849 TIP3     2500     TIP3     H1       HT       0.417000       1.00800           0
     24850 TIP3     2500     TIP3     H2       HT       0.417000       1.00800           0
     24851 TIP3     2501     TIP3     OH2      OT      -0.834000       15.9994           0
     24852 TIP3     2501     TIP3     H1       HT       0.417000       1.00800           0
     24853 TIP3     2501     TIP3     H2       HT       0.417000       1.00800           0
     24854 TIP3     2502     TIP3     OH2      OT      -0.834000       15.9994           0
     24855 TIP3     2502     TIP3     H1       HT       0.417000       1.00800           0
     24856 TIP3     2502     TIP3     H2       HT       0.417000       1.00800           0
     24857 TIP3     2503     TIP3     OH2      OT      -0.834000       15.9994           0
     24858 TIP3     2503     TIP3     H1       HT       0.417000       1.00800           0
     24859 TIP3     2503     TIP3     H2       HT       0.417000       1.00800           0
     24860 TIP3     2504     TIP3     OH2      OT      -0.834000       15.9994           0
     24861 TIP3     2504     TIP3     H1       HT       0.417000       1.00800           0
     24862 TIP3     2504     TIP3     H2       HT       0.417000       1.00800           0
     24863 TIP3     2505     TIP3     OH2      OT      -0.834000       15.9994           0
     24864 TIP3     2505     TIP3     H1       HT       0.417000       1.00800           0
     24865 TIP3     2505     TIP3     H2       HT       0.417000       1.00800           0
     24866 TIP3     2506     TIP3     OH2      OT      -0.834000       15.9994           0
     24867 TIP3     2506     TIP3     H1       HT       0.417000       1.00800           0
     24868 TIP3     2506     TIP3     H2       HT       0.417000       1.00800           0
     24869 TIP3     2507     TIP3     OH2      OT      -0.834000       15.9994           0
     24870 TIP3     2507     TIP3     H1       HT       0.417000       1.00800           0
     24871 TIP3     2507     TIP3     H2       HT       0.417000       1.00800           0
     24872 TIP3     2508     TIP3     OH2      OT      -0.834000       15.9994           0
     24873 TIP3     2508     TIP3     H1       HT       0.417000       1.00800           0
     24874 TIP3     2508     TIP3     H2       HT       0.417000       1.00800           0
     24875 TIP3     2509     TIP3     OH2      OT      -0.834000       15.9994           0
     24876 TIP3     2509     TIP3     H1       HT       0.417000       1.00800           0
     24877 TIP3     2509     TIP3     H2       HT       0.417000       1.00800           0
     24878 TIP3     2510     TIP3     OH2      OT      -0.834000       15.9994           0
     24879 TIP3     2510     TIP3     H1       HT       0.417000       1.00800           0
     24880 TIP3     2510     TIP3     H2       HT       0.417000       1.00800           0
     24881 TIP3     2511     TIP3     OH2      OT      -0.834000       15.9994           0
     24882 TIP3     2511     TIP3     H1       HT       0.417000       1.00800           0
     24883 TIP3     2511     TIP3     H2       HT       0.417000       1.00800           0
     24884 TIP3     2512     TIP3     OH2      OT      -0.834000       15.9994           0
     24885 TIP3     2512     TIP3     H1       HT       0.417000       1.00800           0
     24886 TIP3     2512     TIP3     H2       HT       0.417000       1.00800           0
     24887 TIP3     2513     TIP3     OH2      OT      -0.834000       15.9994           0
     24888 TIP3     2513     TIP3     H1       HT       0.417000       1.00800           0
     24889 TIP3     2513     TIP3     H2       HT       0.417000       1.00800           0
     24890 TIP3     2514     TIP3     OH2      OT      -0.834000       15.9994           0
     24891 TIP3     2514     TIP3     H1       HT       0.417000       1.00800           0
     24892 TIP3     2514     TIP3     H2       HT       0.417000       1.00800           0
     24893 TIP3     2515     TIP3     OH2      OT      -0.834000       15.9994           0
     24894 TIP3     2515     TIP3     H1       HT       0.417000       1.00800           0
     24895 TIP3     2515     TIP3     H2       HT       0.417000       1.00800           0
     24896 TIP3     2516     TIP3     OH2      OT      -0.834000       15.9994           0
     24897 TIP3     2516     TIP3     H1       HT       0.417000       1.00800           0
     24898 TIP3     2516     TIP3     H2       HT       0.417000       1.00800           0
     24899 TIP3     2517     TIP3     OH2      OT      -0.834000       15.9994           0
     24900 TIP3     2517     TIP3     H1       HT       0.417000       1.00800           0
     24901 TIP3     2517     TIP3     H2       HT       0.417000       1.00800           0
     24902 TIP3     2518     TIP3     OH2      OT      -0.834000       15.9994           0
     24903 TIP3     2518     TIP3     H1       HT       0.417000       1.00800           0
     24904 TIP3     2518     TIP3     H2       HT       0.417000       1.00800           0
     24905 TIP3     2519     TIP3     OH2      OT      -0.834000       15.9994           0
     24906 TIP3     2519     TIP3     H1       HT       0.417000       1.00800           0
     24907 TIP3     2519     TIP3     H2       HT       0.417000       1.00800           0
     24908 TIP3     2520     TIP3     OH2      OT      -0.834000       15.9994           0
     24909 TIP3     2520     TIP3     H1       HT       0.417000       1.00800           0
     24910 TIP3     2520     TIP3     H2       HT       0.417000       1.00800           0
     24911 TIP3     2521     TIP3     OH2      OT      -0.834000       15.9994           0
     24912 TIP3     2521     TIP3     H1       HT       0.417000       1.00800           0
     24913 TIP3     2521     TIP3     H2       HT       0.417000       1.00800           0
     24914 TIP3     2522     TIP3     OH2      OT      -0.834000       15.9994           0
     24915 TIP3     2522     TIP3     H1       HT       0.417000       1.00800           0
     24916 TIP3     2522     TIP3     H2       HT       0.417000       1.00800           0
     24917 TIP3     2523     TIP3     OH2      OT      -0.834000       15.9994           0
     24918 TIP3     2523     TIP3     H1       HT       0.417000       1.00800           0
     24919 TIP3     2523     TIP3     H2       HT       0.417000       1.00800           0
     24920 TIP3     2524     TIP3     OH2      OT      -0.834000       15.9994           0
     24921 TIP3     2524     TIP3     H1       HT       0.417000       1.00800           0
     24922 TIP3     2524     TIP3     H2       HT       0.417000       1.00800           0
     24923 TIP3     2525     TIP3     OH2      OT      -0.834000       15.9994           0
     24924 TIP3     2525     TIP3     H1       HT       0.417000       1.00800           0
     24925 TIP3     2525     TIP3     H2       HT       0.417000       1.00800           0
     24926 TIP3     2526     TIP3     OH2      OT      -0.834000       15.9994           0
     24927 TIP3     2526     TIP3     H1       HT       0.417000       1.00800           0
     24928 TIP3     2526     TIP3     H2       HT       0.417000       1.00800           0
     24929 TIP3     2527     TIP3     OH2      OT      -0.834000       15.9994           0
     24930 TIP3     2527     TIP3     H1       HT       0.417000       1.00800           0
     24931 TIP3     2527     TIP3     H2       HT       0.417000       1.00800           0
     24932 TIP3     2528     TIP3     OH2      OT      -0.834000       15.9994           0
     24933 TIP3     2528     TIP3     H1       HT       0.417000       1.00800           0
     24934 TIP3     2528     TIP3     H2       HT       0.417000       1.00800           0
     24935 TIP3     2529     TIP3     OH2      OT      -0.834000       15.9994           0
     24936 TIP3     2529     TIP3     H1       HT       0.417000       1.00800           0
     24937 TIP3     2529     TIP3     H2       HT       0.417000       1.00800           0
     24938 TIP3     2530     TIP3     OH2      OT      -0.834000       15.9994           0
     24939 TIP3     2530     TIP3     H1       HT       0.417000       1.00800           0
     24940 TIP3     2530     TIP3     H2       HT       0.417000       1.00800           0
     24941 TIP3     2531     TIP3     OH2      OT      -0.834000       15.9994           0
     24942 TIP3     2531     TIP3     H1       HT       0.417000       1.00800           0
     24943 TIP3     2531     TIP3     H2       HT       0.417000       1.00800           0
     24944 TIP3     2532     TIP3     OH2      OT      -0.834000       15.9994           0
     24945 TIP3     2532     TIP3     H1       HT       0.417000       1.00800           0
     24946 TIP3     2532     TIP3     H2       HT       0.417000       1.00800           0
     24947 TIP3     2533     TIP3     OH2      OT      -0.834000       15.9994           0
     24948 TIP3     2533     TIP3     H1       HT       0.417000       1.00800           0
     24949 TIP3     2533     TIP3     H2       HT       0.417000       1.00800           0
     24950 TIP3     2534     TIP3     OH2      OT      -0.834000       15.9994           0
     24951 TIP3     2534     TIP3     H1       HT       0.417000       1.00800           0
     24952 TIP3     2534     TIP3     H2       HT       0.417000       1.00800           0
     24953 TIP3     2535     TIP3     OH2      OT      -0.834000       15.9994           0
     24954 TIP3     2535     TIP3     H1       HT       0.417000       1.00800           0
     24955 TIP3     2535     TIP3     H2       HT       0.417000       1.00800           0
     24956 TIP3     2536     TIP3     OH2      OT      -0.834000       15.9994           0
     24957 TIP3     2536     TIP3     H1       HT       0.417000       1.00800           0
     24958 TIP3     2536     TIP3     H2       HT       0.417000       1.00800           0
     24959 TIP3     2537     TIP3     OH2      OT      -0.834000       15.9994           0
     24960 TIP3     2537     TIP3     H1       HT       0.417000       1.00800           0
     24961 TIP3     2537     TIP3     H2       HT       0.417000       1.00800           0
     24962 TIP3     2538     TIP3     OH2      OT      -0.834000       15.9994           0
     24963 TIP3     2538     TIP3     H1       HT       0.417000       1.00800           0
     24964 TIP3     2538     TIP3     H2       HT       0.417000       1.00800           0
     24965 TIP3     2539     TIP3     OH2      OT      -0.834000       15.9994           0
     24966 TIP3     2539     TIP3     H1       HT       0.417000       1.00800           0
     24967 TIP3     2539     TIP3     H2       HT       0.417000       1.00800           0
     24968 TIP3     2540     TIP3     OH2      OT      -0.834000       15.9994           0
     24969 TIP3     2540     TIP3     H1       HT       0.417000       1.00800           0
     24970 TIP3     2540     TIP3     H2       HT       0.417000       1.00800           0
     24971 TIP3     2541     TIP3     OH2      OT      -0.834000       15.9994           0
     24972 TIP3     2541     TIP3     H1       HT       0.417000       1.00800           0
     24973 TIP3     2541     TIP3     H2       HT       0.417000       1.00800           0
     24974 TIP3     2542     TIP3     OH2      OT      -0.834000       15.9994           0
     24975 TIP3     2542     TIP3     H1       HT       0.417000       1.00800           0
     24976 TIP3     2542     TIP3     H2       HT       0.417000       1.00800           0
     24977 TIP3     2543     TIP3     OH2      OT      -0.834000       15.9994           0
     24978 TIP3     2543     TIP3     H1       HT       0.417000       1.00800           0
     24979 TIP3     2543     TIP3     H2       HT       0.417000       1.00800           0
     24980 TIP3     2544     TIP3     OH2      OT      -0.834000       15.9994           0
     24981 TIP3     2544     TIP3     H1       HT       0.417000       1.00800           0
     24982 TIP3     2544     TIP3     H2       HT       0.417000       1.00800           0
     24983 TIP3     2545     TIP3     OH2      OT      -0.834000       15.9994           0
     24984 TIP3     2545     TIP3     H1       HT       0.417000       1.00800           0
     24985 TIP3     2545     TIP3     H2       HT       0.417000       1.00800           0
     24986 TIP3     2546     TIP3     OH2      OT      -0.834000       15.9994           0
     24987 TIP3     2546     TIP3     H1       HT       0.417000       1.00800           0
     24988 TIP3     2546     TIP3     H2       HT       0.417000       1.00800           0
     24989 TIP3     2547     TIP3     OH2      OT      -0.834000       15.9994           0
     24990 TIP3     2547     TIP3     H1       HT       0.417000       1.00800           0
     24991 TIP3     2547     TIP3     H2       HT       0.417000       1.00800           0
     24992 TIP3     2548     TIP3     OH2      OT      -0.834000       15.9994           0
     24993 TIP3     2548     TIP3     H1       HT       0.417000       1.00800           0
     24994 TIP3     2548     TIP3     H2       HT       0.417000       1.00800           0
     24995 TIP3     2549     TIP3     OH2      OT      -0.834000       15.9994           0
     24996 TIP3     2549     TIP3     H1       HT       0.417000       1.00800           0
     24997 TIP3     2549     TIP3     H2       HT       0.417000       1.00800           0
     24998 TIP3     2550     TIP3     OH2      OT      -0.834000       15.9994           0
     24999 TIP3     2550     TIP3     H1       HT       0.417000       1.00800           0
     25000 TIP3     2550     TIP3     H2       HT       0.417000       1.00800           0
     25001 TIP3     2551     TIP3     OH2      OT      -0.834000       15.9994           0
     25002 TIP3     2551     TIP3     H1       HT       0.417000       1.00800           0
     25003 TIP3     2551     TIP3     H2       HT       0.417000       1.00800           0
     25004 TIP3     2552     TIP3     OH2      OT      -0.834000       15.9994           0
     25005 TIP3     2552     TIP3     H1       HT       0.417000       1.00800           0
     25006 TIP3     2552     TIP3     H2       HT       0.417000       1.00800           0
     25007 TIP3     2553     TIP3     OH2      OT      -0.834000       15.9994           0
     25008 TIP3     2553     TIP3     H1       HT       0.417000       1.00800           0
     25009 TIP3     2553     TIP3     H2       HT       0.417000       1.00800           0
     25010 TIP3     2554     TIP3     OH2      OT      -0.834000       15.9994           0
     25011 TIP3     2554     TIP3     H1       HT       0.417000       1.00800           0
     25012 TIP3     2554     TIP3     H2       HT       0.417000       1.00800           0
     25013 TIP3     2555     TIP3     OH2      OT      -0.834000       15.9994           0
     25014 TIP3     2555     TIP3     H1       HT       0.417000       1.00800           0
     25015 TIP3     2555     TIP3     H2       HT       0.417000       1.00800           0
     25016 TIP3     2556     TIP3     OH2      OT      -0.834000       15.9994           0
     25017 TIP3     2556     TIP3     H1       HT       0.417000       1.00800           0
     25018 TIP3     2556     TIP3     H2       HT       0.417000       1.00800           0
     25019 TIP3     2557     TIP3     OH2      OT      -0.834000       15.9994           0
     25020 TIP3     2557     TIP3     H1       HT       0.417000       1.00800           0
     25021 TIP3     2557     TIP3     H2       HT       0.417000       1.00800           0
     25022 TIP3     2558     TIP3     OH2      OT      -0.834000       15.9994           0
     25023 TIP3     2558     TIP3     H1       HT       0.417000       1.00800           0
     25024 TIP3     2558     TIP3     H2       HT       0.417000       1.00800           0
     25025 TIP3     2559     TIP3     OH2      OT      -0.834000       15.9994           0
     25026 TIP3     2559     TIP3     H1       HT       0.417000       1.00800           0
     25027 TIP3     2559     TIP3     H2       HT       0.417000       1.00800           0
     25028 TIP3     2560     TIP3     OH2      OT      -0.834000       15.9994           0
     25029 TIP3     2560     TIP3     H1       HT       0.417000       1.00800           0
     25030 TIP3     2560     TIP3     H2       HT       0.417000       1.00800           0
     25031 TIP3     2561     TIP3     OH2      OT      -0.834000       15.9994           0
     25032 TIP3     2561     TIP3     H1       HT       0.417000       1.00800           0
     25033 TIP3     2561     TIP3     H2       HT       0.417000       1.00800           0
     25034 TIP3     2562     TIP3     OH2      OT      -0.834000       15.9994           0
     25035 TIP3     2562     TIP3     H1       HT       0.417000       1.00800           0
     25036 TIP3     2562     TIP3     H2       HT       0.417000       1.00800           0
     25037 TIP3     2563     TIP3     OH2      OT      -0.834000       15.9994           0
     25038 TIP3     2563     TIP3     H1       HT       0.417000       1.00800           0
     25039 TIP3     2563     TIP3     H2       HT       0.417000       1.00800           0
     25040 TIP3     2564     TIP3     OH2      OT      -0.834000       15.9994           0
     25041 TIP3     2564     TIP3     H1       HT       0.417000       1.00800           0
     25042 TIP3     2564     TIP3     H2       HT       0.417000       1.00800           0
     25043 TIP3     2565     TIP3     OH2      OT      -0.834000       15.9994           0
     25044 TIP3     2565     TIP3     H1       HT       0.417000       1.00800           0
     25045 TIP3     2565     TIP3     H2       HT       0.417000       1.00800           0
     25046 TIP3     2566     TIP3     OH2      OT      -0.834000       15.9994           0
     25047 TIP3     2566     TIP3     H1       HT       0.417000       1.00800           0
     25048 TIP3     2566     TIP3     H2       HT       0.417000       1.00800           0
     25049 TIP3     2567     TIP3     OH2      OT      -0.834000       15.9994           0
     25050 TIP3     2567     TIP3     H1       HT       0.417000       1.00800           0
     25051 TIP3     2567     TIP3     H2       HT       0.417000       1.00800           0
     25052 TIP3     2568     TIP3     OH2      OT      -0.834000       15.9994           0
     25053 TIP3     2568     TIP3     H1       HT       0.417000       1.00800           0
     25054 TIP3     2568     TIP3     H2       HT       0.417000       1.00800           0
     25055 TIP3     2569     TIP3     OH2      OT      -0.834000       15.9994           0
     25056 TIP3     2569     TIP3     H1       HT       0.417000       1.00800           0
     25057 TIP3     2569     TIP3     H2       HT       0.417000       1.00800           0
     25058 TIP3     2570     TIP3     OH2      OT      -0.834000       15.9994           0
     25059 TIP3     2570     TIP3     H1       HT       0.417000       1.00800           0
     25060 TIP3     2570     TIP3     H2       HT       0.417000       1.00800           0
     25061 TIP3     2571     TIP3     OH2      OT      -0.834000       15.9994           0
     25062 TIP3     2571     TIP3     H1       HT       0.417000       1.00800           0
     25063 TIP3     2571     TIP3     H2       HT       0.417000       1.00800           0
     25064 TIP3     2572     TIP3     OH2      OT      -0.834000       15.9994           0
     25065 TIP3     2572     TIP3     H1       HT       0.417000       1.00800           0
     25066 TIP3     2572     TIP3     H2       HT       0.417000       1.00800           0
     25067 TIP3     2573     TIP3     OH2      OT      -0.834000       15.9994           0
     25068 TIP3     2573     TIP3     H1       HT       0.417000       1.00800           0
     25069 TIP3     2573     TIP3     H2       HT       0.417000       1.00800           0
     25070 TIP3     2574     TIP3     OH2      OT      -0.834000       15.9994           0
     25071 TIP3     2574     TIP3     H1       HT       0.417000       1.00800           0
     25072 TIP3     2574     TIP3     H2       HT       0.417000       1.00800           0
     25073 TIP3     2575     TIP3     OH2      OT      -0.834000       15.9994           0
     25074 TIP3     2575     TIP3     H1       HT       0.417000       1.00800           0
     25075 TIP3     2575     TIP3     H2       HT       0.417000       1.00800           0
     25076 TIP3     2576     TIP3     OH2      OT      -0.834000       15.9994           0
     25077 TIP3     2576     TIP3     H1       HT       0.417000       1.00800           0
     25078 TIP3     2576     TIP3     H2       HT       0.417000       1.00800           0
     25079 TIP3     2577     TIP3     OH2      OT      -0.834000       15.9994           0
     25080 TIP3     2577     TIP3     H1       HT       0.417000       1.00800           0
     25081 TIP3     2577     TIP3     H2       HT       0.417000       1.00800           0
     25082 TIP3     2578     TIP3     OH2      OT      -0.834000       15.9994           0
     25083 TIP3     2578     TIP3     H1       HT       0.417000       1.00800           0
     25084 TIP3     2578     TIP3     H2       HT       0.417000       1.00800           0
     25085 TIP3     2579     TIP3     OH2      OT      -0.834000       15.9994           0
     25086 TIP3     2579     TIP3     H1       HT       0.417000       1.00800           0
     25087 TIP3     2579     TIP3     H2       HT       0.417000       1.00800           0
     25088 TIP3     2580     TIP3     OH2      OT      -0.834000       15.9994           0
     25089 TIP3     2580     TIP3     H1       HT       0.417000       1.00800           0
     25090 TIP3     2580     TIP3     H2       HT       0.417000       1.00800           0
     25091 TIP3     2581     TIP3     OH2      OT      -0.834000       15.9994           0
     25092 TIP3     2581     TIP3     H1       HT       0.417000       1.00800           0
     25093 TIP3     2581     TIP3     H2       HT       0.417000       1.00800           0
     25094 TIP3     2582     TIP3     OH2      OT      -0.834000       15.9994           0
     25095 TIP3     2582     TIP3     H1       HT       0.417000       1.00800           0
     25096 TIP3     2582     TIP3     H2       HT       0.417000       1.00800           0
     25097 TIP3     2583     TIP3     OH2      OT      -0.834000       15.9994           0
     25098 TIP3     2583     TIP3     H1       HT       0.417000       1.00800           0
     25099 TIP3     2583     TIP3     H2       HT       0.417000       1.00800           0
     25100 TIP3     2584     TIP3     OH2      OT      -0.834000       15.9994           0
     25101 TIP3     2584     TIP3     H1       HT       0.417000       1.00800           0
     25102 TIP3     2584     TIP3     H2       HT       0.417000       1.00800           0
     25103 TIP3     2585     TIP3     OH2      OT      -0.834000       15.9994           0
     25104 TIP3     2585     TIP3     H1       HT       0.417000       1.00800           0
     25105 TIP3     2585     TIP3     H2       HT       0.417000       1.00800           0
     25106 TIP3     2586     TIP3     OH2      OT      -0.834000       15.9994           0
     25107 TIP3     2586     TIP3     H1       HT       0.417000       1.00800           0
     25108 TIP3     2586     TIP3     H2       HT       0.417000       1.00800           0
     25109 TIP3     2587     TIP3     OH2      OT      -0.834000       15.9994           0
     25110 TIP3     2587     TIP3     H1       HT       0.417000       1.00800           0
     25111 TIP3     2587     TIP3     H2       HT       0.417000       1.00800           0
     25112 TIP3     2588     TIP3     OH2      OT      -0.834000       15.9994           0
     25113 TIP3     2588     TIP3     H1       HT       0.417000       1.00800           0
     25114 TIP3     2588     TIP3     H2       HT       0.417000       1.00800           0
     25115 TIP3     2589     TIP3     OH2      OT      -0.834000       15.9994           0
     25116 TIP3     2589     TIP3     H1       HT       0.417000       1.00800           0
     25117 TIP3     2589     TIP3     H2       HT       0.417000       1.00800           0
     25118 TIP3     2590     TIP3     OH2      OT      -0.834000       15.9994           0
     25119 TIP3     2590     TIP3     H1       HT       0.417000       1.00800           0
     25120 TIP3     2590     TIP3     H2       HT       0.417000       1.00800           0
     25121 TIP3     2591     TIP3     OH2      OT      -0.834000       15.9994           0
     25122 TIP3     2591     TIP3     H1       HT       0.417000       1.00800           0
     25123 TIP3     2591     TIP3     H2       HT       0.417000       1.00800           0
     25124 TIP3     2592     TIP3     OH2      OT      -0.834000       15.9994           0
     25125 TIP3     2592     TIP3     H1       HT       0.417000       1.00800           0
     25126 TIP3     2592     TIP3     H2       HT       0.417000       1.00800           0
     25127 TIP3     2593     TIP3     OH2      OT      -0.834000       15.9994           0
     25128 TIP3     2593     TIP3     H1       HT       0.417000       1.00800           0
     25129 TIP3     2593     TIP3     H2       HT       0.417000       1.00800           0
     25130 TIP3     2594     TIP3     OH2      OT      -0.834000       15.9994           0
     25131 TIP3     2594     TIP3     H1       HT       0.417000       1.00800           0
     25132 TIP3     2594     TIP3     H2       HT       0.417000       1.00800           0
     25133 TIP3     2595     TIP3     OH2      OT      -0.834000       15.9994           0
     25134 TIP3     2595     TIP3     H1       HT       0.417000       1.00800           0
     25135 TIP3     2595     TIP3     H2       HT       0.417000       1.00800           0
     25136 TIP3     2596     TIP3     OH2      OT      -0.834000       15.9994           0
     25137 TIP3     2596     TIP3     H1       HT       0.417000       1.00800           0
     25138 TIP3     2596     TIP3     H2       HT       0.417000       1.00800           0
     25139 TIP3     2597     TIP3     OH2      OT      -0.834000       15.9994           0
     25140 TIP3     2597     TIP3     H1       HT       0.417000       1.00800           0
     25141 TIP3     2597     TIP3     H2       HT       0.417000       1.00800           0
     25142 TIP3     2598     TIP3     OH2      OT      -0.834000       15.9994           0
     25143 TIP3     2598     TIP3     H1       HT       0.417000       1.00800           0
     25144 TIP3     2598     TIP3     H2       HT       0.417000       1.00800           0
     25145 TIP3     2599     TIP3     OH2      OT      -0.834000       15.9994           0
     25146 TIP3     2599     TIP3     H1       HT       0.417000       1.00800           0
     25147 TIP3     2599     TIP3     H2       HT       0.417000       1.00800           0
     25148 TIP3     2600     TIP3     OH2      OT      -0.834000       15.9994           0
     25149 TIP3     2600     TIP3     H1       HT       0.417000       1.00800           0
     25150 TIP3     2600     TIP3     H2       HT       0.417000       1.00800           0
     25151 TIP3     2601     TIP3     OH2      OT      -0.834000       15.9994           0
     25152 TIP3     2601     TIP3     H1       HT       0.417000       1.00800           0
     25153 TIP3     2601     TIP3     H2       HT       0.417000       1.00800           0
     25154 TIP3     2602     TIP3     OH2      OT      -0.834000       15.9994           0
     25155 TIP3     2602     TIP3     H1       HT       0.417000       1.00800           0
     25156 TIP3     2602     TIP3     H2       HT       0.417000       1.00800           0
     25157 TIP3     2603     TIP3     OH2      OT      -0.834000       15.9994           0
     25158 TIP3     2603     TIP3     H1       HT       0.417000       1.00800           0
     25159 TIP3     2603     TIP3     H2       HT       0.417000       1.00800           0
     25160 TIP3     2604     TIP3     OH2      OT      -0.834000       15.9994           0
     25161 TIP3     2604     TIP3     H1       HT       0.417000       1.00800           0
     25162 TIP3     2604     TIP3     H2       HT       0.417000       1.00800           0
     25163 TIP3     2605     TIP3     OH2      OT      -0.834000       15.9994           0
     25164 TIP3     2605     TIP3     H1       HT       0.417000       1.00800           0
     25165 TIP3     2605     TIP3     H2       HT       0.417000       1.00800           0
     25166 TIP3     2606     TIP3     OH2      OT      -0.834000       15.9994           0
     25167 TIP3     2606     TIP3     H1       HT       0.417000       1.00800           0
     25168 TIP3     2606     TIP3     H2       HT       0.417000       1.00800           0
     25169 TIP3     2607     TIP3     OH2      OT      -0.834000       15.9994           0
     25170 TIP3     2607     TIP3     H1       HT       0.417000       1.00800           0
     25171 TIP3     2607     TIP3     H2       HT       0.417000       1.00800           0
     25172 TIP3     2608     TIP3     OH2      OT      -0.834000       15.9994           0
     25173 TIP3     2608     TIP3     H1       HT       0.417000       1.00800           0
     25174 TIP3     2608     TIP3     H2       HT       0.417000       1.00800           0
     25175 TIP3     2609     TIP3     OH2      OT      -0.834000       15.9994           0
     25176 TIP3     2609     TIP3     H1       HT       0.417000       1.00800           0
     25177 TIP3     2609     TIP3     H2       HT       0.417000       1.00800           0
     25178 TIP3     2610     TIP3     OH2      OT      -0.834000       15.9994           0
     25179 TIP3     2610     TIP3     H1       HT       0.417000       1.00800           0
     25180 TIP3     2610     TIP3     H2       HT       0.417000       1.00800           0
     25181 TIP3     2611     TIP3     OH2      OT      -0.834000       15.9994           0
     25182 TIP3     2611     TIP3     H1       HT       0.417000       1.00800           0
     25183 TIP3     2611     TIP3     H2       HT       0.417000       1.00800           0
     25184 TIP3     2612     TIP3     OH2      OT      -0.834000       15.9994           0
     25185 TIP3     2612     TIP3     H1       HT       0.417000       1.00800           0
     25186 TIP3     2612     TIP3     H2       HT       0.417000       1.00800           0
     25187 TIP3     2613     TIP3     OH2      OT      -0.834000       15.9994           0
     25188 TIP3     2613     TIP3     H1       HT       0.417000       1.00800           0
     25189 TIP3     2613     TIP3     H2       HT       0.417000       1.00800           0
     25190 TIP3     2614     TIP3     OH2      OT      -0.834000       15.9994           0
     25191 TIP3     2614     TIP3     H1       HT       0.417000       1.00800           0
     25192 TIP3     2614     TIP3     H2       HT       0.417000       1.00800           0
     25193 TIP3     2615     TIP3     OH2      OT      -0.834000       15.9994           0
     25194 TIP3     2615     TIP3     H1       HT       0.417000       1.00800           0
     25195 TIP3     2615     TIP3     H2       HT       0.417000       1.00800           0
     25196 TIP3     2616     TIP3     OH2      OT      -0.834000       15.9994           0
     25197 TIP3     2616     TIP3     H1       HT       0.417000       1.00800           0
     25198 TIP3     2616     TIP3     H2       HT       0.417000       1.00800           0
     25199 TIP3     2617     TIP3     OH2      OT      -0.834000       15.9994           0
     25200 TIP3     2617     TIP3     H1       HT       0.417000       1.00800           0
     25201 TIP3     2617     TIP3     H2       HT       0.417000       1.00800           0
     25202 TIP3     2618     TIP3     OH2      OT      -0.834000       15.9994           0
     25203 TIP3     2618     TIP3     H1       HT       0.417000       1.00800           0
     25204 TIP3     2618     TIP3     H2       HT       0.417000       1.00800           0
     25205 TIP3     2619     TIP3     OH2      OT      -0.834000       15.9994           0
     25206 TIP3     2619     TIP3     H1       HT       0.417000       1.00800           0
     25207 TIP3     2619     TIP3     H2       HT       0.417000       1.00800           0
     25208 TIP3     2620     TIP3     OH2      OT      -0.834000       15.9994           0
     25209 TIP3     2620     TIP3     H1       HT       0.417000       1.00800           0
     25210 TIP3     2620     TIP3     H2       HT       0.417000       1.00800           0
     25211 TIP3     2621     TIP3     OH2      OT      -0.834000       15.9994           0
     25212 TIP3     2621     TIP3     H1       HT       0.417000       1.00800           0
     25213 TIP3     2621     TIP3     H2       HT       0.417000       1.00800           0
     25214 TIP3     2622     TIP3     OH2      OT      -0.834000       15.9994           0
     25215 TIP3     2622     TIP3     H1       HT       0.417000       1.00800           0
     25216 TIP3     2622     TIP3     H2       HT       0.417000       1.00800           0
     25217 TIP3     2623     TIP3     OH2      OT      -0.834000       15.9994           0
     25218 TIP3     2623     TIP3     H1       HT       0.417000       1.00800           0
     25219 TIP3     2623     TIP3     H2       HT       0.417000       1.00800           0
     25220 TIP3     2624     TIP3     OH2      OT      -0.834000       15.9994           0
     25221 TIP3     2624     TIP3     H1       HT       0.417000       1.00800           0
     25222 TIP3     2624     TIP3     H2       HT       0.417000       1.00800           0
     25223 TIP3     2625     TIP3     OH2      OT      -0.834000       15.9994           0
     25224 TIP3     2625     TIP3     H1       HT       0.417000       1.00800           0
     25225 TIP3     2625     TIP3     H2       HT       0.417000       1.00800           0
     25226 TIP3     2626     TIP3     OH2      OT      -0.834000       15.9994           0
     25227 TIP3     2626     TIP3     H1       HT       0.417000       1.00800           0
     25228 TIP3     2626     TIP3     H2       HT       0.417000       1.00800           0
     25229 TIP3     2627     TIP3     OH2      OT      -0.834000       15.9994           0
     25230 TIP3     2627     TIP3     H1       HT       0.417000       1.00800           0
     25231 TIP3     2627     TIP3     H2       HT       0.417000       1.00800           0
     25232 TIP3     2628     TIP3     OH2      OT      -0.834000       15.9994           0
     25233 TIP3     2628     TIP3     H1       HT       0.417000       1.00800           0
     25234 TIP3     2628     TIP3     H2       HT       0.417000       1.00800           0
     25235 TIP3     2629     TIP3     OH2      OT      -0.834000       15.9994           0
     25236 TIP3     2629     TIP3     H1       HT       0.417000       1.00800           0
     25237 TIP3     2629     TIP3     H2       HT       0.417000       1.00800           0
     25238 TIP3     2630     TIP3     OH2      OT      -0.834000       15.9994           0
     25239 TIP3     2630     TIP3     H1       HT       0.417000       1.00800           0
     25240 TIP3     2630     TIP3     H2       HT       0.417000       1.00800           0
     25241 TIP3     2631     TIP3     OH2      OT      -0.834000       15.9994           0
     25242 TIP3     2631     TIP3     H1       HT       0.417000       1.00800           0
     25243 TIP3     2631     TIP3     H2       HT       0.417000       1.00800           0
     25244 TIP3     2632     TIP3     OH2      OT      -0.834000       15.9994           0
     25245 TIP3     2632     TIP3     H1       HT       0.417000       1.00800           0
     25246 TIP3     2632     TIP3     H2       HT       0.417000       1.00800           0
     25247 TIP3     2633     TIP3     OH2      OT      -0.834000       15.9994           0
     25248 TIP3     2633     TIP3     H1       HT       0.417000       1.00800           0
     25249 TIP3     2633     TIP3     H2       HT       0.417000       1.00800           0
     25250 TIP3     2634     TIP3     OH2      OT      -0.834000       15.9994           0
     25251 TIP3     2634     TIP3     H1       HT       0.417000       1.00800           0
     25252 TIP3     2634     TIP3     H2       HT       0.417000       1.00800           0
     25253 TIP3     2635     TIP3     OH2      OT      -0.834000       15.9994           0
     25254 TIP3     2635     TIP3     H1       HT       0.417000       1.00800           0
     25255 TIP3     2635     TIP3     H2       HT       0.417000       1.00800           0
     25256 TIP3     2636     TIP3     OH2      OT      -0.834000       15.9994           0
     25257 TIP3     2636     TIP3     H1       HT       0.417000       1.00800           0
     25258 TIP3     2636     TIP3     H2       HT       0.417000       1.00800           0
     25259 TIP3     2637     TIP3     OH2      OT      -0.834000       15.9994           0
     25260 TIP3     2637     TIP3     H1       HT       0.417000       1.00800           0
     25261 TIP3     2637     TIP3     H2       HT       0.417000       1.00800           0
     25262 TIP3     2638     TIP3     OH2      OT      -0.834000       15.9994           0
     25263 TIP3     2638     TIP3     H1       HT       0.417000       1.00800           0
     25264 TIP3     2638     TIP3     H2       HT       0.417000       1.00800           0
     25265 TIP3     2639     TIP3     OH2      OT      -0.834000       15.9994           0
     25266 TIP3     2639     TIP3     H1       HT       0.417000       1.00800           0
     25267 TIP3     2639     TIP3     H2       HT       0.417000       1.00800           0
     25268 TIP3     2640     TIP3     OH2      OT      -0.834000       15.9994           0
     25269 TIP3     2640     TIP3     H1       HT       0.417000       1.00800           0
     25270 TIP3     2640     TIP3     H2       HT       0.417000       1.00800           0
     25271 TIP3     2641     TIP3     OH2      OT      -0.834000       15.9994           0
     25272 TIP3     2641     TIP3     H1       HT       0.417000       1.00800           0
     25273 TIP3     2641     TIP3     H2       HT       0.417000       1.00800           0
     25274 TIP3     2642     TIP3     OH2      OT      -0.834000       15.9994           0
     25275 TIP3     2642     TIP3     H1       HT       0.417000       1.00800           0
     25276 TIP3     2642     TIP3     H2       HT       0.417000       1.00800           0
     25277 TIP3     2643     TIP3     OH2      OT      -0.834000       15.9994           0
     25278 TIP3     2643     TIP3     H1       HT       0.417000       1.00800           0
     25279 TIP3     2643     TIP3     H2       HT       0.417000       1.00800           0
     25280 TIP3     2644     TIP3     OH2      OT      -0.834000       15.9994           0
     25281 TIP3     2644     TIP3     H1       HT       0.417000       1.00800           0
     25282 TIP3     2644     TIP3     H2       HT       0.417000       1.00800           0
     25283 TIP3     2645     TIP3     OH2      OT      -0.834000       15.9994           0
     25284 TIP3     2645     TIP3     H1       HT       0.417000       1.00800           0
     25285 TIP3     2645     TIP3     H2       HT       0.417000       1.00800           0
     25286 TIP3     2646     TIP3     OH2      OT      -0.834000       15.9994           0
     25287 TIP3     2646     TIP3     H1       HT       0.417000       1.00800           0
     25288 TIP3     2646     TIP3     H2       HT       0.417000       1.00800           0
     25289 TIP3     2647     TIP3     OH2      OT      -0.834000       15.9994           0
     25290 TIP3     2647     TIP3     H1       HT       0.417000       1.00800           0
     25291 TIP3     2647     TIP3     H2       HT       0.417000       1.00800           0
     25292 TIP3     2648     TIP3     OH2      OT      -0.834000       15.9994           0
     25293 TIP3     2648     TIP3     H1       HT       0.417000       1.00800           0
     25294 TIP3     2648     TIP3     H2       HT       0.417000       1.00800           0
     25295 TIP3     2649     TIP3     OH2      OT      -0.834000       15.9994           0
     25296 TIP3     2649     TIP3     H1       HT       0.417000       1.00800           0
     25297 TIP3     2649     TIP3     H2       HT       0.417000       1.00800           0
     25298 TIP3     2650     TIP3     OH2      OT      -0.834000       15.9994           0
     25299 TIP3     2650     TIP3     H1       HT       0.417000       1.00800           0
     25300 TIP3     2650     TIP3     H2       HT       0.417000       1.00800           0
     25301 TIP3     2651     TIP3     OH2      OT      -0.834000       15.9994           0
     25302 TIP3     2651     TIP3     H1       HT       0.417000       1.00800           0
     25303 TIP3     2651     TIP3     H2       HT       0.417000       1.00800           0
     25304 TIP3     2652     TIP3     OH2      OT      -0.834000       15.9994           0
     25305 TIP3     2652     TIP3     H1       HT       0.417000       1.00800           0
     25306 TIP3     2652     TIP3     H2       HT       0.417000       1.00800           0
     25307 TIP3     2653     TIP3     OH2      OT      -0.834000       15.9994           0
     25308 TIP3     2653     TIP3     H1       HT       0.417000       1.00800           0
     25309 TIP3     2653     TIP3     H2       HT       0.417000       1.00800           0
     25310 TIP3     2654     TIP3     OH2      OT      -0.834000       15.9994           0
     25311 TIP3     2654     TIP3     H1       HT       0.417000       1.00800           0
     25312 TIP3     2654     TIP3     H2       HT       0.417000       1.00800           0
     25313 TIP3     2655     TIP3     OH2      OT      -0.834000       15.9994           0
     25314 TIP3     2655     TIP3     H1       HT       0.417000       1.00800           0
     25315 TIP3     2655     TIP3     H2       HT       0.417000       1.00800           0
     25316 TIP3     2656     TIP3     OH2      OT      -0.834000       15.9994           0
     25317 TIP3     2656     TIP3     H1       HT       0.417000       1.00800           0
     25318 TIP3     2656     TIP3     H2       HT       0.417000       1.00800           0
     25319 TIP3     2657     TIP3     OH2      OT      -0.834000       15.9994           0
     25320 TIP3     2657     TIP3     H1       HT       0.417000       1.00800           0
     25321 TIP3     2657     TIP3     H2       HT       0.417000       1.00800           0
     25322 TIP3     2658     TIP3     OH2      OT      -0.834000       15.9994           0
     25323 TIP3     2658     TIP3     H1       HT       0.417000       1.00800           0
     25324 TIP3     2658     TIP3     H2       HT       0.417000       1.00800           0
     25325 TIP3     2659     TIP3     OH2      OT      -0.834000       15.9994           0
     25326 TIP3     2659     TIP3     H1       HT       0.417000       1.00800           0
     25327 TIP3     2659     TIP3     H2       HT       0.417000       1.00800           0
     25328 TIP3     2660     TIP3     OH2      OT      -0.834000       15.9994           0
     25329 TIP3     2660     TIP3     H1       HT       0.417000       1.00800           0
     25330 TIP3     2660     TIP3     H2       HT       0.417000       1.00800           0
     25331 TIP3     2661     TIP3     OH2      OT      -0.834000       15.9994           0
     25332 TIP3     2661     TIP3     H1       HT       0.417000       1.00800           0
     25333 TIP3     2661     TIP3     H2       HT       0.417000       1.00800           0
     25334 TIP3     2662     TIP3     OH2      OT      -0.834000       15.9994           0
     25335 TIP3     2662     TIP3     H1       HT       0.417000       1.00800           0
     25336 TIP3     2662     TIP3     H2       HT       0.417000       1.00800           0
     25337 TIP3     2663     TIP3     OH2      OT      -0.834000       15.9994           0
     25338 TIP3     2663     TIP3     H1       HT       0.417000       1.00800           0
     25339 TIP3     2663     TIP3     H2       HT       0.417000       1.00800           0
     25340 TIP3     2664     TIP3     OH2      OT      -0.834000       15.9994           0
     25341 TIP3     2664     TIP3     H1       HT       0.417000       1.00800           0
     25342 TIP3     2664     TIP3     H2       HT       0.417000       1.00800           0
     25343 TIP3     2665     TIP3     OH2      OT      -0.834000       15.9994           0
     25344 TIP3     2665     TIP3     H1       HT       0.417000       1.00800           0
     25345 TIP3     2665     TIP3     H2       HT       0.417000       1.00800           0
     25346 TIP3     2666     TIP3     OH2      OT      -0.834000       15.9994           0
     25347 TIP3     2666     TIP3     H1       HT       0.417000       1.00800           0
     25348 TIP3     2666     TIP3     H2       HT       0.417000       1.00800           0
     25349 TIP3     2667     TIP3     OH2      OT      -0.834000       15.9994           0
     25350 TIP3     2667     TIP3     H1       HT       0.417000       1.00800           0
     25351 TIP3     2667     TIP3     H2       HT       0.417000       1.00800           0
     25352 TIP3     2668     TIP3     OH2      OT      -0.834000       15.9994           0
     25353 TIP3     2668     TIP3     H1       HT       0.417000       1.00800           0
     25354 TIP3     2668     TIP3     H2       HT       0.417000       1.00800           0
     25355 TIP3     2669     TIP3     OH2      OT      -0.834000       15.9994           0
     25356 TIP3     2669     TIP3     H1       HT       0.417000       1.00800           0
     25357 TIP3     2669     TIP3     H2       HT       0.417000       1.00800           0
     25358 TIP3     2670     TIP3     OH2      OT      -0.834000       15.9994           0
     25359 TIP3     2670     TIP3     H1       HT       0.417000       1.00800           0
     25360 TIP3     2670     TIP3     H2       HT       0.417000       1.00800           0
     25361 TIP3     2671     TIP3     OH2      OT      -0.834000       15.9994           0
     25362 TIP3     2671     TIP3     H1       HT       0.417000       1.00800           0
     25363 TIP3     2671     TIP3     H2       HT       0.417000       1.00800           0
     25364 TIP3     2672     TIP3     OH2      OT      -0.834000       15.9994           0
     25365 TIP3     2672     TIP3     H1       HT       0.417000       1.00800           0
     25366 TIP3     2672     TIP3     H2       HT       0.417000       1.00800           0
     25367 TIP3     2673     TIP3     OH2      OT      -0.834000       15.9994           0
     25368 TIP3     2673     TIP3     H1       HT       0.417000       1.00800           0
     25369 TIP3     2673     TIP3     H2       HT       0.417000       1.00800           0
     25370 TIP3     2674     TIP3     OH2      OT      -0.834000       15.9994           0
     25371 TIP3     2674     TIP3     H1       HT       0.417000       1.00800           0
     25372 TIP3     2674     TIP3     H2       HT       0.417000       1.00800           0
     25373 TIP3     2675     TIP3     OH2      OT      -0.834000       15.9994           0
     25374 TIP3     2675     TIP3     H1       HT       0.417000       1.00800           0
     25375 TIP3     2675     TIP3     H2       HT       0.417000       1.00800           0
     25376 TIP3     2676     TIP3     OH2      OT      -0.834000       15.9994           0
     25377 TIP3     2676     TIP3     H1       HT       0.417000       1.00800           0
     25378 TIP3     2676     TIP3     H2       HT       0.417000       1.00800           0
     25379 TIP3     2677     TIP3     OH2      OT      -0.834000       15.9994           0
     25380 TIP3     2677     TIP3     H1       HT       0.417000       1.00800           0
     25381 TIP3     2677     TIP3     H2       HT       0.417000       1.00800           0
     25382 TIP3     2678     TIP3     OH2      OT      -0.834000       15.9994           0
     25383 TIP3     2678     TIP3     H1       HT       0.417000       1.00800           0
     25384 TIP3     2678     TIP3     H2       HT       0.417000       1.00800           0
     25385 TIP3     2679     TIP3     OH2      OT      -0.834000       15.9994           0
     25386 TIP3     2679     TIP3     H1       HT       0.417000       1.00800           0
     25387 TIP3     2679     TIP3     H2       HT       0.417000       1.00800           0
     25388 TIP3     2680     TIP3     OH2      OT      -0.834000       15.9994           0
     25389 TIP3     2680     TIP3     H1       HT       0.417000       1.00800           0
     25390 TIP3     2680     TIP3     H2       HT       0.417000       1.00800           0
     25391 TIP3     2681     TIP3     OH2      OT      -0.834000       15.9994           0
     25392 TIP3     2681     TIP3     H1       HT       0.417000       1.00800           0
     25393 TIP3     2681     TIP3     H2       HT       0.417000       1.00800           0
     25394 TIP3     2682     TIP3     OH2      OT      -0.834000       15.9994           0
     25395 TIP3     2682     TIP3     H1       HT       0.417000       1.00800           0
     25396 TIP3     2682     TIP3     H2       HT       0.417000       1.00800           0
     25397 TIP3     2683     TIP3     OH2      OT      -0.834000       15.9994           0
     25398 TIP3     2683     TIP3     H1       HT       0.417000       1.00800           0
     25399 TIP3     2683     TIP3     H2       HT       0.417000       1.00800           0
     25400 TIP3     2684     TIP3     OH2      OT      -0.834000       15.9994           0
     25401 TIP3     2684     TIP3     H1       HT       0.417000       1.00800           0
     25402 TIP3     2684     TIP3     H2       HT       0.417000       1.00800           0
     25403 TIP3     2685     TIP3     OH2      OT      -0.834000       15.9994           0
     25404 TIP3     2685     TIP3     H1       HT       0.417000       1.00800           0
     25405 TIP3     2685     TIP3     H2       HT       0.417000       1.00800           0
     25406 TIP3     2686     TIP3     OH2      OT      -0.834000       15.9994           0
     25407 TIP3     2686     TIP3     H1       HT       0.417000       1.00800           0
     25408 TIP3     2686     TIP3     H2       HT       0.417000       1.00800           0
     25409 TIP3     2687     TIP3     OH2      OT      -0.834000       15.9994           0
     25410 TIP3     2687     TIP3     H1       HT       0.417000       1.00800           0
     25411 TIP3     2687     TIP3     H2       HT       0.417000       1.00800           0
     25412 TIP3     2688     TIP3     OH2      OT      -0.834000       15.9994           0
     25413 TIP3     2688     TIP3     H1       HT       0.417000       1.00800           0
     25414 TIP3     2688     TIP3     H2       HT       0.417000       1.00800           0
     25415 TIP3     2689     TIP3     OH2      OT      -0.834000       15.9994           0
     25416 TIP3     2689     TIP3     H1       HT       0.417000       1.00800           0
     25417 TIP3     2689     TIP3     H2       HT       0.417000       1.00800           0
     25418 TIP3     2690     TIP3     OH2      OT      -0.834000       15.9994           0
     25419 TIP3     2690     TIP3     H1       HT       0.417000       1.00800           0
     25420 TIP3     2690     TIP3     H2       HT       0.417000       1.00800           0
     25421 TIP3     2691     TIP3     OH2      OT      -0.834000       15.9994           0
     25422 TIP3     2691     TIP3     H1       HT       0.417000       1.00800           0
     25423 TIP3     2691     TIP3     H2       HT       0.417000       1.00800           0
     25424 TIP3     2692     TIP3     OH2      OT      -0.834000       15.9994           0
     25425 TIP3     2692     TIP3     H1       HT       0.417000       1.00800           0
     25426 TIP3     2692     TIP3     H2       HT       0.417000       1.00800           0
     25427 TIP3     2693     TIP3     OH2      OT      -0.834000       15.9994           0
     25428 TIP3     2693     TIP3     H1       HT       0.417000       1.00800           0
     25429 TIP3     2693     TIP3     H2       HT       0.417000       1.00800           0
     25430 TIP3     2694     TIP3     OH2      OT      -0.834000       15.9994           0
     25431 TIP3     2694     TIP3     H1       HT       0.417000       1.00800           0
     25432 TIP3     2694     TIP3     H2       HT       0.417000       1.00800           0
     25433 TIP3     2695     TIP3     OH2      OT      -0.834000       15.9994           0
     25434 TIP3     2695     TIP3     H1       HT       0.417000       1.00800           0
     25435 TIP3     2695     TIP3     H2       HT       0.417000       1.00800           0
     25436 TIP3     2696     TIP3     OH2      OT      -0.834000       15.9994           0
     25437 TIP3     2696     TIP3     H1       HT       0.417000       1.00800           0
     25438 TIP3     2696     TIP3     H2       HT       0.417000       1.00800           0
     25439 TIP3     2697     TIP3     OH2      OT      -0.834000       15.9994           0
     25440 TIP3     2697     TIP3     H1       HT       0.417000       1.00800           0
     25441 TIP3     2697     TIP3     H2       HT       0.417000       1.00800           0
     25442 TIP3     2698     TIP3     OH2      OT      -0.834000       15.9994           0
     25443 TIP3     2698     TIP3     H1       HT       0.417000       1.00800           0
     25444 TIP3     2698     TIP3     H2       HT       0.417000       1.00800           0
     25445 TIP3     2699     TIP3     OH2      OT      -0.834000       15.9994           0
     25446 TIP3     2699     TIP3     H1       HT       0.417000       1.00800           0
     25447 TIP3     2699     TIP3     H2       HT       0.417000       1.00800           0
     25448 TIP3     2700     TIP3     OH2      OT      -0.834000       15.9994           0
     25449 TIP3     2700     TIP3     H1       HT       0.417000       1.00800           0
     25450 TIP3     2700     TIP3     H2       HT       0.417000       1.00800           0
     25451 TIP3     2701     TIP3     OH2      OT      -0.834000       15.9994           0
     25452 TIP3     2701     TIP3     H1       HT       0.417000       1.00800           0
     25453 TIP3     2701     TIP3     H2       HT       0.417000       1.00800           0
     25454 TIP3     2702     TIP3     OH2      OT      -0.834000       15.9994           0
     25455 TIP3     2702     TIP3     H1       HT       0.417000       1.00800           0
     25456 TIP3     2702     TIP3     H2       HT       0.417000       1.00800           0
     25457 TIP3     2703     TIP3     OH2      OT      -0.834000       15.9994           0
     25458 TIP3     2703     TIP3     H1       HT       0.417000       1.00800           0
     25459 TIP3     2703     TIP3     H2       HT       0.417000       1.00800           0
     25460 TIP3     2704     TIP3     OH2      OT      -0.834000       15.9994           0
     25461 TIP3     2704     TIP3     H1       HT       0.417000       1.00800           0
     25462 TIP3     2704     TIP3     H2       HT       0.417000       1.00800           0
     25463 TIP3     2705     TIP3     OH2      OT      -0.834000       15.9994           0
     25464 TIP3     2705     TIP3     H1       HT       0.417000       1.00800           0
     25465 TIP3     2705     TIP3     H2       HT       0.417000       1.00800           0
     25466 TIP3     2706     TIP3     OH2      OT      -0.834000       15.9994           0
     25467 TIP3     2706     TIP3     H1       HT       0.417000       1.00800           0
     25468 TIP3     2706     TIP3     H2       HT       0.417000       1.00800           0
     25469 TIP3     2707     TIP3     OH2      OT      -0.834000       15.9994           0
     25470 TIP3     2707     TIP3     H1       HT       0.417000       1.00800           0
     25471 TIP3     2707     TIP3     H2       HT       0.417000       1.00800           0
     25472 TIP3     2708     TIP3     OH2      OT      -0.834000       15.9994           0
     25473 TIP3     2708     TIP3     H1       HT       0.417000       1.00800           0
     25474 TIP3     2708     TIP3     H2       HT       0.417000       1.00800           0
     25475 TIP3     2709     TIP3     OH2      OT      -0.834000       15.9994           0
     25476 TIP3     2709     TIP3     H1       HT       0.417000       1.00800           0
     25477 TIP3     2709     TIP3     H2       HT       0.417000       1.00800           0
     25478 TIP3     2710     TIP3     OH2      OT      -0.834000       15.9994           0
     25479 TIP3     2710     TIP3     H1       HT       0.417000       1.00800           0
     25480 TIP3     2710     TIP3     H2       HT       0.417000       1.00800           0
     25481 TIP3     2711     TIP3     OH2      OT      -0.834000       15.9994           0
     25482 TIP3     2711     TIP3     H1       HT       0.417000       1.00800           0
     25483 TIP3     2711     TIP3     H2       HT       0.417000       1.00800           0
     25484 TIP3     2712     TIP3     OH2      OT      -0.834000       15.9994           0
     25485 TIP3     2712     TIP3     H1       HT       0.417000       1.00800           0
     25486 TIP3     2712     TIP3     H2       HT       0.417000       1.00800           0
     25487 TIP3     2713     TIP3     OH2      OT      -0.834000       15.9994           0
     25488 TIP3     2713     TIP3     H1       HT       0.417000       1.00800           0
     25489 TIP3     2713     TIP3     H2       HT       0.417000       1.00800           0
     25490 TIP3     2714     TIP3     OH2      OT      -0.834000       15.9994           0
     25491 TIP3     2714     TIP3     H1       HT       0.417000       1.00800           0
     25492 TIP3     2714     TIP3     H2       HT       0.417000       1.00800           0
     25493 TIP3     2715     TIP3     OH2      OT      -0.834000       15.9994           0
     25494 TIP3     2715     TIP3     H1       HT       0.417000       1.00800           0
     25495 TIP3     2715     TIP3     H2       HT       0.417000       1.00800           0
     25496 TIP3     2716     TIP3     OH2      OT      -0.834000       15.9994           0
     25497 TIP3     2716     TIP3     H1       HT       0.417000       1.00800           0
     25498 TIP3     2716     TIP3     H2       HT       0.417000       1.00800           0
     25499 TIP3     2717     TIP3     OH2      OT      -0.834000       15.9994           0
     25500 TIP3     2717     TIP3     H1       HT       0.417000       1.00800           0
     25501 TIP3     2717     TIP3     H2       HT       0.417000       1.00800           0
     25502 TIP3     2718     TIP3     OH2      OT      -0.834000       15.9994           0
     25503 TIP3     2718     TIP3     H1       HT       0.417000       1.00800           0
     25504 TIP3     2718     TIP3     H2       HT       0.417000       1.00800           0
     25505 TIP3     2719     TIP3     OH2      OT      -0.834000       15.9994           0
     25506 TIP3     2719     TIP3     H1       HT       0.417000       1.00800           0
     25507 TIP3     2719     TIP3     H2       HT       0.417000       1.00800           0
     25508 TIP3     2720     TIP3     OH2      OT      -0.834000       15.9994           0
     25509 TIP3     2720     TIP3     H1       HT       0.417000       1.00800           0
     25510 TIP3     2720     TIP3     H2       HT       0.417000       1.00800           0
     25511 TIP3     2721     TIP3     OH2      OT      -0.834000       15.9994           0
     25512 TIP3     2721     TIP3     H1       HT       0.417000       1.00800           0
     25513 TIP3     2721     TIP3     H2       HT       0.417000       1.00800           0
     25514 TIP3     2722     TIP3     OH2      OT      -0.834000       15.9994           0
     25515 TIP3     2722     TIP3     H1       HT       0.417000       1.00800           0
     25516 TIP3     2722     TIP3     H2       HT       0.417000       1.00800           0
     25517 TIP3     2723     TIP3     OH2      OT      -0.834000       15.9994           0
     25518 TIP3     2723     TIP3     H1       HT       0.417000       1.00800           0
     25519 TIP3     2723     TIP3     H2       HT       0.417000       1.00800           0
     25520 TIP3     2724     TIP3     OH2      OT      -0.834000       15.9994           0
     25521 TIP3     2724     TIP3     H1       HT       0.417000       1.00800           0
     25522 TIP3     2724     TIP3     H2       HT       0.417000       1.00800           0
     25523 TIP3     2725     TIP3     OH2      OT      -0.834000       15.9994           0
     25524 TIP3     2725     TIP3     H1       HT       0.417000       1.00800           0
     25525 TIP3     2725     TIP3     H2       HT       0.417000       1.00800           0
     25526 TIP3     2726     TIP3     OH2      OT      -0.834000       15.9994           0
     25527 TIP3     2726     TIP3     H1       HT       0.417000       1.00800           0
     25528 TIP3     2726     TIP3     H2       HT       0.417000       1.00800           0
     25529 TIP3     2727     TIP3     OH2      OT      -0.834000       15.9994           0
     25530 TIP3     2727     TIP3     H1       HT       0.417000       1.00800           0
     25531 TIP3     2727     TIP3     H2       HT       0.417000       1.00800           0
     25532 TIP3     2728     TIP3     OH2      OT      -0.834000       15.9994           0
     25533 TIP3     2728     TIP3     H1       HT       0.417000       1.00800           0
     25534 TIP3     2728     TIP3     H2       HT       0.417000       1.00800           0
     25535 TIP3     2729     TIP3     OH2      OT      -0.834000       15.9994           0
     25536 TIP3     2729     TIP3     H1       HT       0.417000       1.00800           0
     25537 TIP3     2729     TIP3     H2       HT       0.417000       1.00800           0
     25538 TIP3     2730     TIP3     OH2      OT      -0.834000       15.9994           0
     25539 TIP3     2730     TIP3     H1       HT       0.417000       1.00800           0
     25540 TIP3     2730     TIP3     H2       HT       0.417000       1.00800           0
     25541 TIP3     2731     TIP3     OH2      OT      -0.834000       15.9994           0
     25542 TIP3     2731     TIP3     H1       HT       0.417000       1.00800           0
     25543 TIP3     2731     TIP3     H2       HT       0.417000       1.00800           0
     25544 TIP3     2732     TIP3     OH2      OT      -0.834000       15.9994           0
     25545 TIP3     2732     TIP3     H1       HT       0.417000       1.00800           0
     25546 TIP3     2732     TIP3     H2       HT       0.417000       1.00800           0
     25547 TIP3     2733     TIP3     OH2      OT      -0.834000       15.9994           0
     25548 TIP3     2733     TIP3     H1       HT       0.417000       1.00800           0
     25549 TIP3     2733     TIP3     H2       HT       0.417000       1.00800           0
     25550 TIP3     2734     TIP3     OH2      OT      -0.834000       15.9994           0
     25551 TIP3     2734     TIP3     H1       HT       0.417000       1.00800           0
     25552 TIP3     2734     TIP3     H2       HT       0.417000       1.00800           0
     25553 TIP3     2735     TIP3     OH2      OT      -0.834000       15.9994           0
     25554 TIP3     2735     TIP3     H1       HT       0.417000       1.00800           0
     25555 TIP3     2735     TIP3     H2       HT       0.417000       1.00800           0
     25556 TIP3     2736     TIP3     OH2      OT      -0.834000       15.9994           0
     25557 TIP3     2736     TIP3     H1       HT       0.417000       1.00800           0
     25558 TIP3     2736     TIP3     H2       HT       0.417000       1.00800           0
     25559 TIP3     2737     TIP3     OH2      OT      -0.834000       15.9994           0
     25560 TIP3     2737     TIP3     H1       HT       0.417000       1.00800           0
     25561 TIP3     2737     TIP3     H2       HT       0.417000       1.00800           0
     25562 TIP3     2738     TIP3     OH2      OT      -0.834000       15.9994           0
     25563 TIP3     2738     TIP3     H1       HT       0.417000       1.00800           0
     25564 TIP3     2738     TIP3     H2       HT       0.417000       1.00800           0
     25565 TIP3     2739     TIP3     OH2      OT      -0.834000       15.9994           0
     25566 TIP3     2739     TIP3     H1       HT       0.417000       1.00800           0
     25567 TIP3     2739     TIP3     H2       HT       0.417000       1.00800           0
     25568 TIP3     2740     TIP3     OH2      OT      -0.834000       15.9994           0
     25569 TIP3     2740     TIP3     H1       HT       0.417000       1.00800           0
     25570 TIP3     2740     TIP3     H2       HT       0.417000       1.00800           0
     25571 TIP3     2741     TIP3     OH2      OT      -0.834000       15.9994           0
     25572 TIP3     2741     TIP3     H1       HT       0.417000       1.00800           0
     25573 TIP3     2741     TIP3     H2       HT       0.417000       1.00800           0
     25574 TIP3     2742     TIP3     OH2      OT      -0.834000       15.9994           0
     25575 TIP3     2742     TIP3     H1       HT       0.417000       1.00800           0
     25576 TIP3     2742     TIP3     H2       HT       0.417000       1.00800           0
     25577 TIP3     2743     TIP3     OH2      OT      -0.834000       15.9994           0
     25578 TIP3     2743     TIP3     H1       HT       0.417000       1.00800           0
     25579 TIP3     2743     TIP3     H2       HT       0.417000       1.00800           0
     25580 TIP3     2744     TIP3     OH2      OT      -0.834000       15.9994           0
     25581 TIP3     2744     TIP3     H1       HT       0.417000       1.00800           0
     25582 TIP3     2744     TIP3     H2       HT       0.417000       1.00800           0
     25583 TIP3     2745     TIP3     OH2      OT      -0.834000       15.9994           0
     25584 TIP3     2745     TIP3     H1       HT       0.417000       1.00800           0
     25585 TIP3     2745     TIP3     H2       HT       0.417000       1.00800           0
     25586 TIP3     2746     TIP3     OH2      OT      -0.834000       15.9994           0
     25587 TIP3     2746     TIP3     H1       HT       0.417000       1.00800           0
     25588 TIP3     2746     TIP3     H2       HT       0.417000       1.00800           0
     25589 TIP3     2747     TIP3     OH2      OT      -0.834000       15.9994           0
     25590 TIP3     2747     TIP3     H1       HT       0.417000       1.00800           0
     25591 TIP3     2747     TIP3     H2       HT       0.417000       1.00800           0
     25592 TIP3     2748     TIP3     OH2      OT      -0.834000       15.9994           0
     25593 TIP3     2748     TIP3     H1       HT       0.417000       1.00800           0
     25594 TIP3     2748     TIP3     H2       HT       0.417000       1.00800           0
     25595 TIP3     2749     TIP3     OH2      OT      -0.834000       15.9994           0
     25596 TIP3     2749     TIP3     H1       HT       0.417000       1.00800           0
     25597 TIP3     2749     TIP3     H2       HT       0.417000       1.00800           0
     25598 TIP3     2750     TIP3     OH2      OT      -0.834000       15.9994           0
     25599 TIP3     2750     TIP3     H1       HT       0.417000       1.00800           0
     25600 TIP3     2750     TIP3     H2       HT       0.417000       1.00800           0
     25601 TIP3     2751     TIP3     OH2      OT      -0.834000       15.9994           0
     25602 TIP3     2751     TIP3     H1       HT       0.417000       1.00800           0
     25603 TIP3     2751     TIP3     H2       HT       0.417000       1.00800           0
     25604 TIP3     2752     TIP3     OH2      OT      -0.834000       15.9994           0
     25605 TIP3     2752     TIP3     H1       HT       0.417000       1.00800           0
     25606 TIP3     2752     TIP3     H2       HT       0.417000       1.00800           0
     25607 TIP3     2753     TIP3     OH2      OT      -0.834000       15.9994           0
     25608 TIP3     2753     TIP3     H1       HT       0.417000       1.00800           0
     25609 TIP3     2753     TIP3     H2       HT       0.417000       1.00800           0
     25610 TIP3     2754     TIP3     OH2      OT      -0.834000       15.9994           0
     25611 TIP3     2754     TIP3     H1       HT       0.417000       1.00800           0
     25612 TIP3     2754     TIP3     H2       HT       0.417000       1.00800           0
     25613 TIP3     2755     TIP3     OH2      OT      -0.834000       15.9994           0
     25614 TIP3     2755     TIP3     H1       HT       0.417000       1.00800           0
     25615 TIP3     2755     TIP3     H2       HT       0.417000       1.00800           0
     25616 TIP3     2756     TIP3     OH2      OT      -0.834000       15.9994           0
     25617 TIP3     2756     TIP3     H1       HT       0.417000       1.00800           0
     25618 TIP3     2756     TIP3     H2       HT       0.417000       1.00800           0
     25619 TIP3     2757     TIP3     OH2      OT      -0.834000       15.9994           0
     25620 TIP3     2757     TIP3     H1       HT       0.417000       1.00800           0
     25621 TIP3     2757     TIP3     H2       HT       0.417000       1.00800           0
     25622 TIP3     2758     TIP3     OH2      OT      -0.834000       15.9994           0
     25623 TIP3     2758     TIP3     H1       HT       0.417000       1.00800           0
     25624 TIP3     2758     TIP3     H2       HT       0.417000       1.00800           0
     25625 TIP3     2759     TIP3     OH2      OT      -0.834000       15.9994           0
     25626 TIP3     2759     TIP3     H1       HT       0.417000       1.00800           0
     25627 TIP3     2759     TIP3     H2       HT       0.417000       1.00800           0
     25628 TIP3     2760     TIP3     OH2      OT      -0.834000       15.9994           0
     25629 TIP3     2760     TIP3     H1       HT       0.417000       1.00800           0
     25630 TIP3     2760     TIP3     H2       HT       0.417000       1.00800           0
     25631 TIP3     2761     TIP3     OH2      OT      -0.834000       15.9994           0
     25632 TIP3     2761     TIP3     H1       HT       0.417000       1.00800           0
     25633 TIP3     2761     TIP3     H2       HT       0.417000       1.00800           0
     25634 TIP3     2762     TIP3     OH2      OT      -0.834000       15.9994           0
     25635 TIP3     2762     TIP3     H1       HT       0.417000       1.00800           0
     25636 TIP3     2762     TIP3     H2       HT       0.417000       1.00800           0
     25637 TIP3     2763     TIP3     OH2      OT      -0.834000       15.9994           0
     25638 TIP3     2763     TIP3     H1       HT       0.417000       1.00800           0
     25639 TIP3     2763     TIP3     H2       HT       0.417000       1.00800           0
     25640 TIP3     2764     TIP3     OH2      OT      -0.834000       15.9994           0
     25641 TIP3     2764     TIP3     H1       HT       0.417000       1.00800           0
     25642 TIP3     2764     TIP3     H2       HT       0.417000       1.00800           0
     25643 TIP3     2765     TIP3     OH2      OT      -0.834000       15.9994           0
     25644 TIP3     2765     TIP3     H1       HT       0.417000       1.00800           0
     25645 TIP3     2765     TIP3     H2       HT       0.417000       1.00800           0
     25646 TIP3     2766     TIP3     OH2      OT      -0.834000       15.9994           0
     25647 TIP3     2766     TIP3     H1       HT       0.417000       1.00800           0
     25648 TIP3     2766     TIP3     H2       HT       0.417000       1.00800           0
     25649 TIP3     2767     TIP3     OH2      OT      -0.834000       15.9994           0
     25650 TIP3     2767     TIP3     H1       HT       0.417000       1.00800           0
     25651 TIP3     2767     TIP3     H2       HT       0.417000       1.00800           0
     25652 TIP3     2768     TIP3     OH2      OT      -0.834000       15.9994           0
     25653 TIP3     2768     TIP3     H1       HT       0.417000       1.00800           0
     25654 TIP3     2768     TIP3     H2       HT       0.417000       1.00800           0
     25655 TIP3     2769     TIP3     OH2      OT      -0.834000       15.9994           0
     25656 TIP3     2769     TIP3     H1       HT       0.417000       1.00800           0
     25657 TIP3     2769     TIP3     H2       HT       0.417000       1.00800           0
     25658 TIP3     2770     TIP3     OH2      OT      -0.834000       15.9994           0
     25659 TIP3     2770     TIP3     H1       HT       0.417000       1.00800           0
     25660 TIP3     2770     TIP3     H2       HT       0.417000       1.00800           0
     25661 TIP3     2771     TIP3     OH2      OT      -0.834000       15.9994           0
     25662 TIP3     2771     TIP3     H1       HT       0.417000       1.00800           0
     25663 TIP3     2771     TIP3     H2       HT       0.417000       1.00800           0
     25664 TIP3     2772     TIP3     OH2      OT      -0.834000       15.9994           0
     25665 TIP3     2772     TIP3     H1       HT       0.417000       1.00800           0
     25666 TIP3     2772     TIP3     H2       HT       0.417000       1.00800           0
     25667 TIP3     2773     TIP3     OH2      OT      -0.834000       15.9994           0
     25668 TIP3     2773     TIP3     H1       HT       0.417000       1.00800           0
     25669 TIP3     2773     TIP3     H2       HT       0.417000       1.00800           0
     25670 TIP3     2774     TIP3     OH2      OT      -0.834000       15.9994           0
     25671 TIP3     2774     TIP3     H1       HT       0.417000       1.00800           0
     25672 TIP3     2774     TIP3     H2       HT       0.417000       1.00800           0
     25673 TIP3     2775     TIP3     OH2      OT      -0.834000       15.9994           0
     25674 TIP3     2775     TIP3     H1       HT       0.417000       1.00800           0
     25675 TIP3     2775     TIP3     H2       HT       0.417000       1.00800           0
     25676 TIP3     2776     TIP3     OH2      OT      -0.834000       15.9994           0
     25677 TIP3     2776     TIP3     H1       HT       0.417000       1.00800           0
     25678 TIP3     2776     TIP3     H2       HT       0.417000       1.00800           0
     25679 TIP3     2777     TIP3     OH2      OT      -0.834000       15.9994           0
     25680 TIP3     2777     TIP3     H1       HT       0.417000       1.00800           0
     25681 TIP3     2777     TIP3     H2       HT       0.417000       1.00800           0
     25682 TIP3     2778     TIP3     OH2      OT      -0.834000       15.9994           0
     25683 TIP3     2778     TIP3     H1       HT       0.417000       1.00800           0
     25684 TIP3     2778     TIP3     H2       HT       0.417000       1.00800           0
     25685 TIP3     2779     TIP3     OH2      OT      -0.834000       15.9994           0
     25686 TIP3     2779     TIP3     H1       HT       0.417000       1.00800           0
     25687 TIP3     2779     TIP3     H2       HT       0.417000       1.00800           0
     25688 TIP3     2780     TIP3     OH2      OT      -0.834000       15.9994           0
     25689 TIP3     2780     TIP3     H1       HT       0.417000       1.00800           0
     25690 TIP3     2780     TIP3     H2       HT       0.417000       1.00800           0
     25691 TIP3     2781     TIP3     OH2      OT      -0.834000       15.9994           0
     25692 TIP3     2781     TIP3     H1       HT       0.417000       1.00800           0
     25693 TIP3     2781     TIP3     H2       HT       0.417000       1.00800           0
     25694 TIP3     2782     TIP3     OH2      OT      -0.834000       15.9994           0
     25695 TIP3     2782     TIP3     H1       HT       0.417000       1.00800           0
     25696 TIP3     2782     TIP3     H2       HT       0.417000       1.00800           0
     25697 TIP3     2783     TIP3     OH2      OT      -0.834000       15.9994           0
     25698 TIP3     2783     TIP3     H1       HT       0.417000       1.00800           0
     25699 TIP3     2783     TIP3     H2       HT       0.417000       1.00800           0
     25700 TIP3     2784     TIP3     OH2      OT      -0.834000       15.9994           0
     25701 TIP3     2784     TIP3     H1       HT       0.417000       1.00800           0
     25702 TIP3     2784     TIP3     H2       HT       0.417000       1.00800           0
     25703 TIP3     2785     TIP3     OH2      OT      -0.834000       15.9994           0
     25704 TIP3     2785     TIP3     H1       HT       0.417000       1.00800           0
     25705 TIP3     2785     TIP3     H2       HT       0.417000       1.00800           0
     25706 TIP3     2786     TIP3     OH2      OT      -0.834000       15.9994           0
     25707 TIP3     2786     TIP3     H1       HT       0.417000       1.00800           0
     25708 TIP3     2786     TIP3     H2       HT       0.417000       1.00800           0
     25709 TIP3     2787     TIP3     OH2      OT      -0.834000       15.9994           0
     25710 TIP3     2787     TIP3     H1       HT       0.417000       1.00800           0
     25711 TIP3     2787     TIP3     H2       HT       0.417000       1.00800           0
     25712 TIP3     2788     TIP3     OH2      OT      -0.834000       15.9994           0
     25713 TIP3     2788     TIP3     H1       HT       0.417000       1.00800           0
     25714 TIP3     2788     TIP3     H2       HT       0.417000       1.00800           0
     25715 TIP3     2789     TIP3     OH2      OT      -0.834000       15.9994           0
     25716 TIP3     2789     TIP3     H1       HT       0.417000       1.00800           0
     25717 TIP3     2789     TIP3     H2       HT       0.417000       1.00800           0
     25718 TIP3     2790     TIP3     OH2      OT      -0.834000       15.9994           0
     25719 TIP3     2790     TIP3     H1       HT       0.417000       1.00800           0
     25720 TIP3     2790     TIP3     H2       HT       0.417000       1.00800           0
     25721 TIP3     2791     TIP3     OH2      OT      -0.834000       15.9994           0
     25722 TIP3     2791     TIP3     H1       HT       0.417000       1.00800           0
     25723 TIP3     2791     TIP3     H2       HT       0.417000       1.00800           0
     25724 TIP3     2792     TIP3     OH2      OT      -0.834000       15.9994           0
     25725 TIP3     2792     TIP3     H1       HT       0.417000       1.00800           0
     25726 TIP3     2792     TIP3     H2       HT       0.417000       1.00800           0
     25727 TIP3     2793     TIP3     OH2      OT      -0.834000       15.9994           0
     25728 TIP3     2793     TIP3     H1       HT       0.417000       1.00800           0
     25729 TIP3     2793     TIP3     H2       HT       0.417000       1.00800           0
     25730 TIP3     2794     TIP3     OH2      OT      -0.834000       15.9994           0
     25731 TIP3     2794     TIP3     H1       HT       0.417000       1.00800           0
     25732 TIP3     2794     TIP3     H2       HT       0.417000       1.00800           0
     25733 TIP3     2795     TIP3     OH2      OT      -0.834000       15.9994           0
     25734 TIP3     2795     TIP3     H1       HT       0.417000       1.00800           0
     25735 TIP3     2795     TIP3     H2       HT       0.417000       1.00800           0
     25736 TIP3     2796     TIP3     OH2      OT      -0.834000       15.9994           0
     25737 TIP3     2796     TIP3     H1       HT       0.417000       1.00800           0
     25738 TIP3     2796     TIP3     H2       HT       0.417000       1.00800           0
     25739 TIP3     2797     TIP3     OH2      OT      -0.834000       15.9994           0
     25740 TIP3     2797     TIP3     H1       HT       0.417000       1.00800           0
     25741 TIP3     2797     TIP3     H2       HT       0.417000       1.00800           0
     25742 TIP3     2798     TIP3     OH2      OT      -0.834000       15.9994           0
     25743 TIP3     2798     TIP3     H1       HT       0.417000       1.00800           0
     25744 TIP3     2798     TIP3     H2       HT       0.417000       1.00800           0
     25745 TIP3     2799     TIP3     OH2      OT      -0.834000       15.9994           0
     25746 TIP3     2799     TIP3     H1       HT       0.417000       1.00800           0
     25747 TIP3     2799     TIP3     H2       HT       0.417000       1.00800           0
     25748 TIP3     2800     TIP3     OH2      OT      -0.834000       15.9994           0
     25749 TIP3     2800     TIP3     H1       HT       0.417000       1.00800           0
     25750 TIP3     2800     TIP3     H2       HT       0.417000       1.00800           0
     25751 TIP3     2801     TIP3     OH2      OT      -0.834000       15.9994           0
     25752 TIP3     2801     TIP3     H1       HT       0.417000       1.00800           0
     25753 TIP3     2801     TIP3     H2       HT       0.417000       1.00800           0
     25754 TIP3     2802     TIP3     OH2      OT      -0.834000       15.9994           0
     25755 TIP3     2802     TIP3     H1       HT       0.417000       1.00800           0
     25756 TIP3     2802     TIP3     H2       HT       0.417000       1.00800           0
     25757 TIP3     2803     TIP3     OH2      OT      -0.834000       15.9994           0
     25758 TIP3     2803     TIP3     H1       HT       0.417000       1.00800           0
     25759 TIP3     2803     TIP3     H2       HT       0.417000       1.00800           0
     25760 TIP3     2804     TIP3     OH2      OT      -0.834000       15.9994           0
     25761 TIP3     2804     TIP3     H1       HT       0.417000       1.00800           0
     25762 TIP3     2804     TIP3     H2       HT       0.417000       1.00800           0
     25763 TIP3     2805     TIP3     OH2      OT      -0.834000       15.9994           0
     25764 TIP3     2805     TIP3     H1       HT       0.417000       1.00800           0
     25765 TIP3     2805     TIP3     H2       HT       0.417000       1.00800           0
     25766 TIP3     2806     TIP3     OH2      OT      -0.834000       15.9994           0
     25767 TIP3     2806     TIP3     H1       HT       0.417000       1.00800           0
     25768 TIP3     2806     TIP3     H2       HT       0.417000       1.00800           0
     25769 TIP3     2807     TIP3     OH2      OT      -0.834000       15.9994           0
     25770 TIP3     2807     TIP3     H1       HT       0.417000       1.00800           0
     25771 TIP3     2807     TIP3     H2       HT       0.417000       1.00800           0
     25772 TIP3     2808     TIP3     OH2      OT      -0.834000       15.9994           0
     25773 TIP3     2808     TIP3     H1       HT       0.417000       1.00800           0
     25774 TIP3     2808     TIP3     H2       HT       0.417000       1.00800           0
     25775 TIP3     2809     TIP3     OH2      OT      -0.834000       15.9994           0
     25776 TIP3     2809     TIP3     H1       HT       0.417000       1.00800           0
     25777 TIP3     2809     TIP3     H2       HT       0.417000       1.00800           0
     25778 TIP3     2810     TIP3     OH2      OT      -0.834000       15.9994           0
     25779 TIP3     2810     TIP3     H1       HT       0.417000       1.00800           0
     25780 TIP3     2810     TIP3     H2       HT       0.417000       1.00800           0
     25781 TIP3     2811     TIP3     OH2      OT      -0.834000       15.9994           0
     25782 TIP3     2811     TIP3     H1       HT       0.417000       1.00800           0
     25783 TIP3     2811     TIP3     H2       HT       0.417000       1.00800           0
     25784 TIP3     2812     TIP3     OH2      OT      -0.834000       15.9994           0
     25785 TIP3     2812     TIP3     H1       HT       0.417000       1.00800           0
     25786 TIP3     2812     TIP3     H2       HT       0.417000       1.00800           0
     25787 TIP3     2813     TIP3     OH2      OT      -0.834000       15.9994           0
     25788 TIP3     2813     TIP3     H1       HT       0.417000       1.00800           0
     25789 TIP3     2813     TIP3     H2       HT       0.417000       1.00800           0
     25790 TIP3     2814     TIP3     OH2      OT      -0.834000       15.9994           0
     25791 TIP3     2814     TIP3     H1       HT       0.417000       1.00800           0
     25792 TIP3     2814     TIP3     H2       HT       0.417000       1.00800           0
     25793 TIP3     2815     TIP3     OH2      OT      -0.834000       15.9994           0
     25794 TIP3     2815     TIP3     H1       HT       0.417000       1.00800           0
     25795 TIP3     2815     TIP3     H2       HT       0.417000       1.00800           0
     25796 TIP3     2816     TIP3     OH2      OT      -0.834000       15.9994           0
     25797 TIP3     2816     TIP3     H1       HT       0.417000       1.00800           0
     25798 TIP3     2816     TIP3     H2       HT       0.417000       1.00800           0
     25799 TIP3     2817     TIP3     OH2      OT      -0.834000       15.9994           0
     25800 TIP3     2817     TIP3     H1       HT       0.417000       1.00800           0
     25801 TIP3     2817     TIP3     H2       HT       0.417000       1.00800           0
     25802 TIP3     2818     TIP3     OH2      OT      -0.834000       15.9994           0
     25803 TIP3     2818     TIP3     H1       HT       0.417000       1.00800           0
     25804 TIP3     2818     TIP3     H2       HT       0.417000       1.00800           0
     25805 TIP3     2819     TIP3     OH2      OT      -0.834000       15.9994           0
     25806 TIP3     2819     TIP3     H1       HT       0.417000       1.00800           0
     25807 TIP3     2819     TIP3     H2       HT       0.417000       1.00800           0
     25808 TIP3     2820     TIP3     OH2      OT      -0.834000       15.9994           0
     25809 TIP3     2820     TIP3     H1       HT       0.417000       1.00800           0
     25810 TIP3     2820     TIP3     H2       HT       0.417000       1.00800           0
     25811 TIP3     2821     TIP3     OH2      OT      -0.834000       15.9994           0
     25812 TIP3     2821     TIP3     H1       HT       0.417000       1.00800           0
     25813 TIP3     2821     TIP3     H2       HT       0.417000       1.00800           0
     25814 TIP3     2822     TIP3     OH2      OT      -0.834000       15.9994           0
     25815 TIP3     2822     TIP3     H1       HT       0.417000       1.00800           0
     25816 TIP3     2822     TIP3     H2       HT       0.417000       1.00800           0
     25817 TIP3     2823     TIP3     OH2      OT      -0.834000       15.9994           0
     25818 TIP3     2823     TIP3     H1       HT       0.417000       1.00800           0
     25819 TIP3     2823     TIP3     H2       HT       0.417000       1.00800           0
     25820 TIP3     2824     TIP3     OH2      OT      -0.834000       15.9994           0
     25821 TIP3     2824     TIP3     H1       HT       0.417000       1.00800           0
     25822 TIP3     2824     TIP3     H2       HT       0.417000       1.00800           0
     25823 TIP3     2825     TIP3     OH2      OT      -0.834000       15.9994           0
     25824 TIP3     2825     TIP3     H1       HT       0.417000       1.00800           0
     25825 TIP3     2825     TIP3     H2       HT       0.417000       1.00800           0
     25826 TIP3     2826     TIP3     OH2      OT      -0.834000       15.9994           0
     25827 TIP3     2826     TIP3     H1       HT       0.417000       1.00800           0
     25828 TIP3     2826     TIP3     H2       HT       0.417000       1.00800           0
     25829 TIP3     2827     TIP3     OH2      OT      -0.834000       15.9994           0
     25830 TIP3     2827     TIP3     H1       HT       0.417000       1.00800           0
     25831 TIP3     2827     TIP3     H2       HT       0.417000       1.00800           0
     25832 TIP3     2828     TIP3     OH2      OT      -0.834000       15.9994           0
     25833 TIP3     2828     TIP3     H1       HT       0.417000       1.00800           0
     25834 TIP3     2828     TIP3     H2       HT       0.417000       1.00800           0
     25835 TIP3     2829     TIP3     OH2      OT      -0.834000       15.9994           0
     25836 TIP3     2829     TIP3     H1       HT       0.417000       1.00800           0
     25837 TIP3     2829     TIP3     H2       HT       0.417000       1.00800           0
     25838 TIP3     2830     TIP3     OH2      OT      -0.834000       15.9994           0
     25839 TIP3     2830     TIP3     H1       HT       0.417000       1.00800           0
     25840 TIP3     2830     TIP3     H2       HT       0.417000       1.00800           0
     25841 TIP3     2831     TIP3     OH2      OT      -0.834000       15.9994           0
     25842 TIP3     2831     TIP3     H1       HT       0.417000       1.00800           0
     25843 TIP3     2831     TIP3     H2       HT       0.417000       1.00800           0
     25844 TIP3     2832     TIP3     OH2      OT      -0.834000       15.9994           0
     25845 TIP3     2832     TIP3     H1       HT       0.417000       1.00800           0
     25846 TIP3     2832     TIP3     H2       HT       0.417000       1.00800           0
     25847 TIP3     2833     TIP3     OH2      OT      -0.834000       15.9994           0
     25848 TIP3     2833     TIP3     H1       HT       0.417000       1.00800           0
     25849 TIP3     2833     TIP3     H2       HT       0.417000       1.00800           0
     25850 TIP3     2834     TIP3     OH2      OT      -0.834000       15.9994           0
     25851 TIP3     2834     TIP3     H1       HT       0.417000       1.00800           0
     25852 TIP3     2834     TIP3     H2       HT       0.417000       1.00800           0
     25853 TIP3     2835     TIP3     OH2      OT      -0.834000       15.9994           0
     25854 TIP3     2835     TIP3     H1       HT       0.417000       1.00800           0
     25855 TIP3     2835     TIP3     H2       HT       0.417000       1.00800           0
     25856 TIP3     2836     TIP3     OH2      OT      -0.834000       15.9994           0
     25857 TIP3     2836     TIP3     H1       HT       0.417000       1.00800           0
     25858 TIP3     2836     TIP3     H2       HT       0.417000       1.00800           0
     25859 TIP3     2837     TIP3     OH2      OT      -0.834000       15.9994           0
     25860 TIP3     2837     TIP3     H1       HT       0.417000       1.00800           0
     25861 TIP3     2837     TIP3     H2       HT       0.417000       1.00800           0
     25862 TIP3     2838     TIP3     OH2      OT      -0.834000       15.9994           0
     25863 TIP3     2838     TIP3     H1       HT       0.417000       1.00800           0
     25864 TIP3     2838     TIP3     H2       HT       0.417000       1.00800           0
     25865 TIP3     2839     TIP3     OH2      OT      -0.834000       15.9994           0
     25866 TIP3     2839     TIP3     H1       HT       0.417000       1.00800           0
     25867 TIP3     2839     TIP3     H2       HT       0.417000       1.00800           0
     25868 TIP3     2840     TIP3     OH2      OT      -0.834000       15.9994           0
     25869 TIP3     2840     TIP3     H1       HT       0.417000       1.00800           0
     25870 TIP3     2840     TIP3     H2       HT       0.417000       1.00800           0
     25871 TIP3     2841     TIP3     OH2      OT      -0.834000       15.9994           0
     25872 TIP3     2841     TIP3     H1       HT       0.417000       1.00800           0
     25873 TIP3     2841     TIP3     H2       HT       0.417000       1.00800           0
     25874 TIP3     2842     TIP3     OH2      OT      -0.834000       15.9994           0
     25875 TIP3     2842     TIP3     H1       HT       0.417000       1.00800           0
     25876 TIP3     2842     TIP3     H2       HT       0.417000       1.00800           0
     25877 TIP3     2843     TIP3     OH2      OT      -0.834000       15.9994           0
     25878 TIP3     2843     TIP3     H1       HT       0.417000       1.00800           0
     25879 TIP3     2843     TIP3     H2       HT       0.417000       1.00800           0
     25880 TIP3     2844     TIP3     OH2      OT      -0.834000       15.9994           0
     25881 TIP3     2844     TIP3     H1       HT       0.417000       1.00800           0
     25882 TIP3     2844     TIP3     H2       HT       0.417000       1.00800           0
     25883 TIP3     2845     TIP3     OH2      OT      -0.834000       15.9994           0
     25884 TIP3     2845     TIP3     H1       HT       0.417000       1.00800           0
     25885 TIP3     2845     TIP3     H2       HT       0.417000       1.00800           0
     25886 TIP3     2846     TIP3     OH2      OT      -0.834000       15.9994           0
     25887 TIP3     2846     TIP3     H1       HT       0.417000       1.00800           0
     25888 TIP3     2846     TIP3     H2       HT       0.417000       1.00800           0
     25889 TIP3     2847     TIP3     OH2      OT      -0.834000       15.9994           0
     25890 TIP3     2847     TIP3     H1       HT       0.417000       1.00800           0
     25891 TIP3     2847     TIP3     H2       HT       0.417000       1.00800           0
     25892 TIP3     2848     TIP3     OH2      OT      -0.834000       15.9994           0
     25893 TIP3     2848     TIP3     H1       HT       0.417000       1.00800           0
     25894 TIP3     2848     TIP3     H2       HT       0.417000       1.00800           0
     25895 TIP3     2849     TIP3     OH2      OT      -0.834000       15.9994           0
     25896 TIP3     2849     TIP3     H1       HT       0.417000       1.00800           0
     25897 TIP3     2849     TIP3     H2       HT       0.417000       1.00800           0
     25898 TIP3     2850     TIP3     OH2      OT      -0.834000       15.9994           0
     25899 TIP3     2850     TIP3     H1       HT       0.417000       1.00800           0
     25900 TIP3     2850     TIP3     H2       HT       0.417000       1.00800           0
     25901 TIP3     2851     TIP3     OH2      OT      -0.834000       15.9994           0
     25902 TIP3     2851     TIP3     H1       HT       0.417000       1.00800           0
     25903 TIP3     2851     TIP3     H2       HT       0.417000       1.00800           0
     25904 TIP3     2852     TIP3     OH2      OT      -0.834000       15.9994           0
     25905 TIP3     2852     TIP3     H1       HT       0.417000       1.00800           0
     25906 TIP3     2852     TIP3     H2       HT       0.417000       1.00800           0
     25907 TIP3     2853     TIP3     OH2      OT      -0.834000       15.9994           0
     25908 TIP3     2853     TIP3     H1       HT       0.417000       1.00800           0
     25909 TIP3     2853     TIP3     H2       HT       0.417000       1.00800           0
     25910 TIP3     2854     TIP3     OH2      OT      -0.834000       15.9994           0
     25911 TIP3     2854     TIP3     H1       HT       0.417000       1.00800           0
     25912 TIP3     2854     TIP3     H2       HT       0.417000       1.00800           0
     25913 TIP3     2855     TIP3     OH2      OT      -0.834000       15.9994           0
     25914 TIP3     2855     TIP3     H1       HT       0.417000       1.00800           0
     25915 TIP3     2855     TIP3     H2       HT       0.417000       1.00800           0
     25916 TIP3     2856     TIP3     OH2      OT      -0.834000       15.9994           0
     25917 TIP3     2856     TIP3     H1       HT       0.417000       1.00800           0
     25918 TIP3     2856     TIP3     H2       HT       0.417000       1.00800           0
     25919 TIP3     2857     TIP3     OH2      OT      -0.834000       15.9994           0
     25920 TIP3     2857     TIP3     H1       HT       0.417000       1.00800           0
     25921 TIP3     2857     TIP3     H2       HT       0.417000       1.00800           0
     25922 TIP3     2858     TIP3     OH2      OT      -0.834000       15.9994           0
     25923 TIP3     2858     TIP3     H1       HT       0.417000       1.00800           0
     25924 TIP3     2858     TIP3     H2       HT       0.417000       1.00800           0
     25925 TIP3     2859     TIP3     OH2      OT      -0.834000       15.9994           0
     25926 TIP3     2859     TIP3     H1       HT       0.417000       1.00800           0
     25927 TIP3     2859     TIP3     H2       HT       0.417000       1.00800           0
     25928 TIP3     2860     TIP3     OH2      OT      -0.834000       15.9994           0
     25929 TIP3     2860     TIP3     H1       HT       0.417000       1.00800           0
     25930 TIP3     2860     TIP3     H2       HT       0.417000       1.00800           0
     25931 TIP3     2861     TIP3     OH2      OT      -0.834000       15.9994           0
     25932 TIP3     2861     TIP3     H1       HT       0.417000       1.00800           0
     25933 TIP3     2861     TIP3     H2       HT       0.417000       1.00800           0
     25934 TIP3     2862     TIP3     OH2      OT      -0.834000       15.9994           0
     25935 TIP3     2862     TIP3     H1       HT       0.417000       1.00800           0
     25936 TIP3     2862     TIP3     H2       HT       0.417000       1.00800           0
     25937 TIP3     2863     TIP3     OH2      OT      -0.834000       15.9994           0
     25938 TIP3     2863     TIP3     H1       HT       0.417000       1.00800           0
     25939 TIP3     2863     TIP3     H2       HT       0.417000       1.00800           0
     25940 TIP3     2864     TIP3     OH2      OT      -0.834000       15.9994           0
     25941 TIP3     2864     TIP3     H1       HT       0.417000       1.00800           0
     25942 TIP3     2864     TIP3     H2       HT       0.417000       1.00800           0
     25943 TIP3     2865     TIP3     OH2      OT      -0.834000       15.9994           0
     25944 TIP3     2865     TIP3     H1       HT       0.417000       1.00800           0
     25945 TIP3     2865     TIP3     H2       HT       0.417000       1.00800           0
     25946 TIP3     2866     TIP3     OH2      OT      -0.834000       15.9994           0
     25947 TIP3     2866     TIP3     H1       HT       0.417000       1.00800           0
     25948 TIP3     2866     TIP3     H2       HT       0.417000       1.00800           0
     25949 TIP3     2867     TIP3     OH2      OT      -0.834000       15.9994           0
     25950 TIP3     2867     TIP3     H1       HT       0.417000       1.00800           0
     25951 TIP3     2867     TIP3     H2       HT       0.417000       1.00800           0
     25952 TIP3     2868     TIP3     OH2      OT      -0.834000       15.9994           0
     25953 TIP3     2868     TIP3     H1       HT       0.417000       1.00800           0
     25954 TIP3     2868     TIP3     H2       HT       0.417000       1.00800           0
     25955 TIP3     2869     TIP3     OH2      OT      -0.834000       15.9994           0
     25956 TIP3     2869     TIP3     H1       HT       0.417000       1.00800           0
     25957 TIP3     2869     TIP3     H2       HT       0.417000       1.00800           0
     25958 TIP3     2870     TIP3     OH2      OT      -0.834000       15.9994           0
     25959 TIP3     2870     TIP3     H1       HT       0.417000       1.00800           0
     25960 TIP3     2870     TIP3     H2       HT       0.417000       1.00800           0
     25961 TIP3     2871     TIP3     OH2      OT      -0.834000       15.9994           0
     25962 TIP3     2871     TIP3     H1       HT       0.417000       1.00800           0
     25963 TIP3     2871     TIP3     H2       HT       0.417000       1.00800           0
     25964 TIP3     2872     TIP3     OH2      OT      -0.834000       15.9994           0
     25965 TIP3     2872     TIP3     H1       HT       0.417000       1.00800           0
     25966 TIP3     2872     TIP3     H2       HT       0.417000       1.00800           0
     25967 TIP3     2873     TIP3     OH2      OT      -0.834000       15.9994           0
     25968 TIP3     2873     TIP3     H1       HT       0.417000       1.00800           0
     25969 TIP3     2873     TIP3     H2       HT       0.417000       1.00800           0
     25970 TIP3     2874     TIP3     OH2      OT      -0.834000       15.9994           0
     25971 TIP3     2874     TIP3     H1       HT       0.417000       1.00800           0
     25972 TIP3     2874     TIP3     H2       HT       0.417000       1.00800           0
     25973 TIP3     2875     TIP3     OH2      OT      -0.834000       15.9994           0
     25974 TIP3     2875     TIP3     H1       HT       0.417000       1.00800           0
     25975 TIP3     2875     TIP3     H2       HT       0.417000       1.00800           0
     25976 TIP3     2876     TIP3     OH2      OT      -0.834000       15.9994           0
     25977 TIP3     2876     TIP3     H1       HT       0.417000       1.00800           0
     25978 TIP3     2876     TIP3     H2       HT       0.417000       1.00800           0
     25979 TIP3     2877     TIP3     OH2      OT      -0.834000       15.9994           0
     25980 TIP3     2877     TIP3     H1       HT       0.417000       1.00800           0
     25981 TIP3     2877     TIP3     H2       HT       0.417000       1.00800           0
     25982 TIP3     2878     TIP3     OH2      OT      -0.834000       15.9994           0
     25983 TIP3     2878     TIP3     H1       HT       0.417000       1.00800           0
     25984 TIP3     2878     TIP3     H2       HT       0.417000       1.00800           0
     25985 TIP3     2879     TIP3     OH2      OT      -0.834000       15.9994           0
     25986 TIP3     2879     TIP3     H1       HT       0.417000       1.00800           0
     25987 TIP3     2879     TIP3     H2       HT       0.417000       1.00800           0
     25988 TIP3     2880     TIP3     OH2      OT      -0.834000       15.9994           0
     25989 TIP3     2880     TIP3     H1       HT       0.417000       1.00800           0
     25990 TIP3     2880     TIP3     H2       HT       0.417000       1.00800           0
     25991 TIP3     2881     TIP3     OH2      OT      -0.834000       15.9994           0
     25992 TIP3     2881     TIP3     H1       HT       0.417000       1.00800           0
     25993 TIP3     2881     TIP3     H2       HT       0.417000       1.00800           0
     25994 TIP3     2882     TIP3     OH2      OT      -0.834000       15.9994           0
     25995 TIP3     2882     TIP3     H1       HT       0.417000       1.00800           0
     25996 TIP3     2882     TIP3     H2       HT       0.417000       1.00800           0
     25997 TIP3     2883     TIP3     OH2      OT      -0.834000       15.9994           0
     25998 TIP3     2883     TIP3     H1       HT       0.417000       1.00800           0
     25999 TIP3     2883     TIP3     H2       HT       0.417000       1.00800           0
     26000 TIP3     2884     TIP3     OH2      OT      -0.834000       15.9994           0
     26001 TIP3     2884     TIP3     H1       HT       0.417000       1.00800           0
     26002 TIP3     2884     TIP3     H2       HT       0.417000       1.00800           0
     26003 TIP3     2885     TIP3     OH2      OT      -0.834000       15.9994           0
     26004 TIP3     2885     TIP3     H1       HT       0.417000       1.00800           0
     26005 TIP3     2885     TIP3     H2       HT       0.417000       1.00800           0
     26006 TIP3     2886     TIP3     OH2      OT      -0.834000       15.9994           0
     26007 TIP3     2886     TIP3     H1       HT       0.417000       1.00800           0
     26008 TIP3     2886     TIP3     H2       HT       0.417000       1.00800           0
     26009 TIP3     2887     TIP3     OH2      OT      -0.834000       15.9994           0
     26010 TIP3     2887     TIP3     H1       HT       0.417000       1.00800           0
     26011 TIP3     2887     TIP3     H2       HT       0.417000       1.00800           0
     26012 TIP3     2888     TIP3     OH2      OT      -0.834000       15.9994           0
     26013 TIP3     2888     TIP3     H1       HT       0.417000       1.00800           0
     26014 TIP3     2888     TIP3     H2       HT       0.417000       1.00800           0
     26015 TIP3     2889     TIP3     OH2      OT      -0.834000       15.9994           0
     26016 TIP3     2889     TIP3     H1       HT       0.417000       1.00800           0
     26017 TIP3     2889     TIP3     H2       HT       0.417000       1.00800           0
     26018 TIP3     2890     TIP3     OH2      OT      -0.834000       15.9994           0
     26019 TIP3     2890     TIP3     H1       HT       0.417000       1.00800           0
     26020 TIP3     2890     TIP3     H2       HT       0.417000       1.00800           0
     26021 TIP3     2891     TIP3     OH2      OT      -0.834000       15.9994           0
     26022 TIP3     2891     TIP3     H1       HT       0.417000       1.00800           0
     26023 TIP3     2891     TIP3     H2       HT       0.417000       1.00800           0
     26024 TIP3     2892     TIP3     OH2      OT      -0.834000       15.9994           0
     26025 TIP3     2892     TIP3     H1       HT       0.417000       1.00800           0
     26026 TIP3     2892     TIP3     H2       HT       0.417000       1.00800           0
     26027 TIP3     2893     TIP3     OH2      OT      -0.834000       15.9994           0
     26028 TIP3     2893     TIP3     H1       HT       0.417000       1.00800           0
     26029 TIP3     2893     TIP3     H2       HT       0.417000       1.00800           0
     26030 TIP3     2894     TIP3     OH2      OT      -0.834000       15.9994           0
     26031 TIP3     2894     TIP3     H1       HT       0.417000       1.00800           0
     26032 TIP3     2894     TIP3     H2       HT       0.417000       1.00800           0
     26033 TIP3     2895     TIP3     OH2      OT      -0.834000       15.9994           0
     26034 TIP3     2895     TIP3     H1       HT       0.417000       1.00800           0
     26035 TIP3     2895     TIP3     H2       HT       0.417000       1.00800           0
     26036 TIP3     2896     TIP3     OH2      OT      -0.834000       15.9994           0
     26037 TIP3     2896     TIP3     H1       HT       0.417000       1.00800           0
     26038 TIP3     2896     TIP3     H2       HT       0.417000       1.00800           0
     26039 TIP3     2897     TIP3     OH2      OT      -0.834000       15.9994           0
     26040 TIP3     2897     TIP3     H1       HT       0.417000       1.00800           0
     26041 TIP3     2897     TIP3     H2       HT       0.417000       1.00800           0
     26042 TIP3     2898     TIP3     OH2      OT      -0.834000       15.9994           0
     26043 TIP3     2898     TIP3     H1       HT       0.417000       1.00800           0
     26044 TIP3     2898     TIP3     H2       HT       0.417000       1.00800           0
     26045 TIP3     2899     TIP3     OH2      OT      -0.834000       15.9994           0
     26046 TIP3     2899     TIP3     H1       HT       0.417000       1.00800           0
     26047 TIP3     2899     TIP3     H2       HT       0.417000       1.00800           0
     26048 TIP3     2900     TIP3     OH2      OT      -0.834000       15.9994           0
     26049 TIP3     2900     TIP3     H1       HT       0.417000       1.00800           0
     26050 TIP3     2900     TIP3     H2       HT       0.417000       1.00800           0
     26051 TIP3     2901     TIP3     OH2      OT      -0.834000       15.9994           0
     26052 TIP3     2901     TIP3     H1       HT       0.417000       1.00800           0
     26053 TIP3     2901     TIP3     H2       HT       0.417000       1.00800           0
     26054 TIP3     2902     TIP3     OH2      OT      -0.834000       15.9994           0
     26055 TIP3     2902     TIP3     H1       HT       0.417000       1.00800           0
     26056 TIP3     2902     TIP3     H2       HT       0.417000       1.00800           0
     26057 TIP3     2903     TIP3     OH2      OT      -0.834000       15.9994           0
     26058 TIP3     2903     TIP3     H1       HT       0.417000       1.00800           0
     26059 TIP3     2903     TIP3     H2       HT       0.417000       1.00800           0
     26060 TIP3     2904     TIP3     OH2      OT      -0.834000       15.9994           0
     26061 TIP3     2904     TIP3     H1       HT       0.417000       1.00800           0
     26062 TIP3     2904     TIP3     H2       HT       0.417000       1.00800           0
     26063 TIP3     2905     TIP3     OH2      OT      -0.834000       15.9994           0
     26064 TIP3     2905     TIP3     H1       HT       0.417000       1.00800           0
     26065 TIP3     2905     TIP3     H2       HT       0.417000       1.00800           0
     26066 TIP3     2906     TIP3     OH2      OT      -0.834000       15.9994           0
     26067 TIP3     2906     TIP3     H1       HT       0.417000       1.00800           0
     26068 TIP3     2906     TIP3     H2       HT       0.417000       1.00800           0
     26069 TIP3     2907     TIP3     OH2      OT      -0.834000       15.9994           0
     26070 TIP3     2907     TIP3     H1       HT       0.417000       1.00800           0
     26071 TIP3     2907     TIP3     H2       HT       0.417000       1.00800           0
     26072 TIP3     2908     TIP3     OH2      OT      -0.834000       15.9994           0
     26073 TIP3     2908     TIP3     H1       HT       0.417000       1.00800           0
     26074 TIP3     2908     TIP3     H2       HT       0.417000       1.00800           0
     26075 TIP3     2909     TIP3     OH2      OT      -0.834000       15.9994           0
     26076 TIP3     2909     TIP3     H1       HT       0.417000       1.00800           0
     26077 TIP3     2909     TIP3     H2       HT       0.417000       1.00800           0
     26078 TIP3     2910     TIP3     OH2      OT      -0.834000       15.9994           0
     26079 TIP3     2910     TIP3     H1       HT       0.417000       1.00800           0
     26080 TIP3     2910     TIP3     H2       HT       0.417000       1.00800           0
     26081 TIP3     2911     TIP3     OH2      OT      -0.834000       15.9994           0
     26082 TIP3     2911     TIP3     H1       HT       0.417000       1.00800           0
     26083 TIP3     2911     TIP3     H2       HT       0.417000       1.00800           0
     26084 TIP3     2912     TIP3     OH2      OT      -0.834000       15.9994           0
     26085 TIP3     2912     TIP3     H1       HT       0.417000       1.00800           0
     26086 TIP3     2912     TIP3     H2       HT       0.417000       1.00800           0
     26087 TIP3     2913     TIP3     OH2      OT      -0.834000       15.9994           0
     26088 TIP3     2913     TIP3     H1       HT       0.417000       1.00800           0
     26089 TIP3     2913     TIP3     H2       HT       0.417000       1.00800           0
     26090 TIP3     2914     TIP3     OH2      OT      -0.834000       15.9994           0
     26091 TIP3     2914     TIP3     H1       HT       0.417000       1.00800           0
     26092 TIP3     2914     TIP3     H2       HT       0.417000       1.00800           0
     26093 TIP3     2915     TIP3     OH2      OT      -0.834000       15.9994           0
     26094 TIP3     2915     TIP3     H1       HT       0.417000       1.00800           0
     26095 TIP3     2915     TIP3     H2       HT       0.417000       1.00800           0
     26096 TIP3     2916     TIP3     OH2      OT      -0.834000       15.9994           0
     26097 TIP3     2916     TIP3     H1       HT       0.417000       1.00800           0
     26098 TIP3     2916     TIP3     H2       HT       0.417000       1.00800           0
     26099 TIP3     2917     TIP3     OH2      OT      -0.834000       15.9994           0
     26100 TIP3     2917     TIP3     H1       HT       0.417000       1.00800           0
     26101 TIP3     2917     TIP3     H2       HT       0.417000       1.00800           0
     26102 TIP3     2918     TIP3     OH2      OT      -0.834000       15.9994           0
     26103 TIP3     2918     TIP3     H1       HT       0.417000       1.00800           0
     26104 TIP3     2918     TIP3     H2       HT       0.417000       1.00800           0
     26105 TIP3     2919     TIP3     OH2      OT      -0.834000       15.9994           0
     26106 TIP3     2919     TIP3     H1       HT       0.417000       1.00800           0
     26107 TIP3     2919     TIP3     H2       HT       0.417000       1.00800           0
     26108 TIP3     2920     TIP3     OH2      OT      -0.834000       15.9994           0
     26109 TIP3     2920     TIP3     H1       HT       0.417000       1.00800           0
     26110 TIP3     2920     TIP3     H2       HT       0.417000       1.00800           0
     26111 TIP3     2921     TIP3     OH2      OT      -0.834000       15.9994           0
     26112 TIP3     2921     TIP3     H1       HT       0.417000       1.00800           0
     26113 TIP3     2921     TIP3     H2       HT       0.417000       1.00800           0
     26114 TIP3     2922     TIP3     OH2      OT      -0.834000       15.9994           0
     26115 TIP3     2922     TIP3     H1       HT       0.417000       1.00800           0
     26116 TIP3     2922     TIP3     H2       HT       0.417000       1.00800           0
     26117 TIP3     2923     TIP3     OH2      OT      -0.834000       15.9994           0
     26118 TIP3     2923     TIP3     H1       HT       0.417000       1.00800           0
     26119 TIP3     2923     TIP3     H2       HT       0.417000       1.00800           0
     26120 TIP3     2924     TIP3     OH2      OT      -0.834000       15.9994           0
     26121 TIP3     2924     TIP3     H1       HT       0.417000       1.00800           0
     26122 TIP3     2924     TIP3     H2       HT       0.417000       1.00800           0
     26123 TIP3     2925     TIP3     OH2      OT      -0.834000       15.9994           0
     26124 TIP3     2925     TIP3     H1       HT       0.417000       1.00800           0
     26125 TIP3     2925     TIP3     H2       HT       0.417000       1.00800           0
     26126 TIP3     2926     TIP3     OH2      OT      -0.834000       15.9994           0
     26127 TIP3     2926     TIP3     H1       HT       0.417000       1.00800           0
     26128 TIP3     2926     TIP3     H2       HT       0.417000       1.00800           0
     26129 TIP3     2927     TIP3     OH2      OT      -0.834000       15.9994           0
     26130 TIP3     2927     TIP3     H1       HT       0.417000       1.00800           0
     26131 TIP3     2927     TIP3     H2       HT       0.417000       1.00800           0
     26132 TIP3     2928     TIP3     OH2      OT      -0.834000       15.9994           0
     26133 TIP3     2928     TIP3     H1       HT       0.417000       1.00800           0
     26134 TIP3     2928     TIP3     H2       HT       0.417000       1.00800           0
     26135 TIP3     2929     TIP3     OH2      OT      -0.834000       15.9994           0
     26136 TIP3     2929     TIP3     H1       HT       0.417000       1.00800           0
     26137 TIP3     2929     TIP3     H2       HT       0.417000       1.00800           0
     26138 TIP3     2930     TIP3     OH2      OT      -0.834000       15.9994           0
     26139 TIP3     2930     TIP3     H1       HT       0.417000       1.00800           0
     26140 TIP3     2930     TIP3     H2       HT       0.417000       1.00800           0
     26141 TIP3     2931     TIP3     OH2      OT      -0.834000       15.9994           0
     26142 TIP3     2931     TIP3     H1       HT       0.417000       1.00800           0
     26143 TIP3     2931     TIP3     H2       HT       0.417000       1.00800           0
     26144 TIP3     2932     TIP3     OH2      OT      -0.834000       15.9994           0
     26145 TIP3     2932     TIP3     H1       HT       0.417000       1.00800           0
     26146 TIP3     2932     TIP3     H2       HT       0.417000       1.00800           0
     26147 TIP3     2933     TIP3     OH2      OT      -0.834000       15.9994           0
     26148 TIP3     2933     TIP3     H1       HT       0.417000       1.00800           0
     26149 TIP3     2933     TIP3     H2       HT       0.417000       1.00800           0
     26150 TIP3     2934     TIP3     OH2      OT      -0.834000       15.9994           0
     26151 TIP3     2934     TIP3     H1       HT       0.417000       1.00800           0
     26152 TIP3     2934     TIP3     H2       HT       0.417000       1.00800           0
     26153 TIP3     2935     TIP3     OH2      OT      -0.834000       15.9994           0
     26154 TIP3     2935     TIP3     H1       HT       0.417000       1.00800           0
     26155 TIP3     2935     TIP3     H2       HT       0.417000       1.00800           0
     26156 TIP3     2936     TIP3     OH2      OT      -0.834000       15.9994           0
     26157 TIP3     2936     TIP3     H1       HT       0.417000       1.00800           0
     26158 TIP3     2936     TIP3     H2       HT       0.417000       1.00800           0
     26159 TIP3     2937     TIP3     OH2      OT      -0.834000       15.9994           0
     26160 TIP3     2937     TIP3     H1       HT       0.417000       1.00800           0
     26161 TIP3     2937     TIP3     H2       HT       0.417000       1.00800           0
     26162 TIP3     2938     TIP3     OH2      OT      -0.834000       15.9994           0
     26163 TIP3     2938     TIP3     H1       HT       0.417000       1.00800           0
     26164 TIP3     2938     TIP3     H2       HT       0.417000       1.00800           0
     26165 TIP3     2939     TIP3     OH2      OT      -0.834000       15.9994           0
     26166 TIP3     2939     TIP3     H1       HT       0.417000       1.00800           0
     26167 TIP3     2939     TIP3     H2       HT       0.417000       1.00800           0
     26168 TIP3     2940     TIP3     OH2      OT      -0.834000       15.9994           0
     26169 TIP3     2940     TIP3     H1       HT       0.417000       1.00800           0
     26170 TIP3     2940     TIP3     H2       HT       0.417000       1.00800           0
     26171 TIP3     2941     TIP3     OH2      OT      -0.834000       15.9994           0
     26172 TIP3     2941     TIP3     H1       HT       0.417000       1.00800           0
     26173 TIP3     2941     TIP3     H2       HT       0.417000       1.00800           0
     26174 TIP3     2942     TIP3     OH2      OT      -0.834000       15.9994           0
     26175 TIP3     2942     TIP3     H1       HT       0.417000       1.00800           0
     26176 TIP3     2942     TIP3     H2       HT       0.417000       1.00800           0
     26177 TIP3     2943     TIP3     OH2      OT      -0.834000       15.9994           0
     26178 TIP3     2943     TIP3     H1       HT       0.417000       1.00800           0
     26179 TIP3     2943     TIP3     H2       HT       0.417000       1.00800           0
     26180 TIP3     2944     TIP3     OH2      OT      -0.834000       15.9994           0
     26181 TIP3     2944     TIP3     H1       HT       0.417000       1.00800           0
     26182 TIP3     2944     TIP3     H2       HT       0.417000       1.00800           0
     26183 TIP3     2945     TIP3     OH2      OT      -0.834000       15.9994           0
     26184 TIP3     2945     TIP3     H1       HT       0.417000       1.00800           0
     26185 TIP3     2945     TIP3     H2       HT       0.417000       1.00800           0
     26186 TIP3     2946     TIP3     OH2      OT      -0.834000       15.9994           0
     26187 TIP3     2946     TIP3     H1       HT       0.417000       1.00800           0
     26188 TIP3     2946     TIP3     H2       HT       0.417000       1.00800           0
     26189 TIP3     2947     TIP3     OH2      OT      -0.834000       15.9994           0
     26190 TIP3     2947     TIP3     H1       HT       0.417000       1.00800           0
     26191 TIP3     2947     TIP3     H2       HT       0.417000       1.00800           0
     26192 TIP3     2948     TIP3     OH2      OT      -0.834000       15.9994           0
     26193 TIP3     2948     TIP3     H1       HT       0.417000       1.00800           0
     26194 TIP3     2948     TIP3     H2       HT       0.417000       1.00800           0
     26195 TIP3     2949     TIP3     OH2      OT      -0.834000       15.9994           0
     26196 TIP3     2949     TIP3     H1       HT       0.417000       1.00800           0
     26197 TIP3     2949     TIP3     H2       HT       0.417000       1.00800           0
     26198 TIP3     2950     TIP3     OH2      OT      -0.834000       15.9994           0
     26199 TIP3     2950     TIP3     H1       HT       0.417000       1.00800           0
     26200 TIP3     2950     TIP3     H2       HT       0.417000       1.00800           0
     26201 TIP3     2951     TIP3     OH2      OT      -0.834000       15.9994           0
     26202 TIP3     2951     TIP3     H1       HT       0.417000       1.00800           0
     26203 TIP3     2951     TIP3     H2       HT       0.417000       1.00800           0
     26204 TIP3     2952     TIP3     OH2      OT      -0.834000       15.9994           0
     26205 TIP3     2952     TIP3     H1       HT       0.417000       1.00800           0
     26206 TIP3     2952     TIP3     H2       HT       0.417000       1.00800           0
     26207 TIP3     2953     TIP3     OH2      OT      -0.834000       15.9994           0
     26208 TIP3     2953     TIP3     H1       HT       0.417000       1.00800           0
     26209 TIP3     2953     TIP3     H2       HT       0.417000       1.00800           0
     26210 TIP3     2954     TIP3     OH2      OT      -0.834000       15.9994           0
     26211 TIP3     2954     TIP3     H1       HT       0.417000       1.00800           0
     26212 TIP3     2954     TIP3     H2       HT       0.417000       1.00800           0
     26213 TIP3     2955     TIP3     OH2      OT      -0.834000       15.9994           0
     26214 TIP3     2955     TIP3     H1       HT       0.417000       1.00800           0
     26215 TIP3     2955     TIP3     H2       HT       0.417000       1.00800           0
     26216 TIP3     2956     TIP3     OH2      OT      -0.834000       15.9994           0
     26217 TIP3     2956     TIP3     H1       HT       0.417000       1.00800           0
     26218 TIP3     2956     TIP3     H2       HT       0.417000       1.00800           0
     26219 TIP3     2957     TIP3     OH2      OT      -0.834000       15.9994           0
     26220 TIP3     2957     TIP3     H1       HT       0.417000       1.00800           0
     26221 TIP3     2957     TIP3     H2       HT       0.417000       1.00800           0
     26222 TIP3     2958     TIP3     OH2      OT      -0.834000       15.9994           0
     26223 TIP3     2958     TIP3     H1       HT       0.417000       1.00800           0
     26224 TIP3     2958     TIP3     H2       HT       0.417000       1.00800           0
     26225 TIP3     2959     TIP3     OH2      OT      -0.834000       15.9994           0
     26226 TIP3     2959     TIP3     H1       HT       0.417000       1.00800           0
     26227 TIP3     2959     TIP3     H2       HT       0.417000       1.00800           0
     26228 TIP3     2960     TIP3     OH2      OT      -0.834000       15.9994           0
     26229 TIP3     2960     TIP3     H1       HT       0.417000       1.00800           0
     26230 TIP3     2960     TIP3     H2       HT       0.417000       1.00800           0
     26231 TIP3     2961     TIP3     OH2      OT      -0.834000       15.9994           0
     26232 TIP3     2961     TIP3     H1       HT       0.417000       1.00800           0
     26233 TIP3     2961     TIP3     H2       HT       0.417000       1.00800           0
     26234 TIP3     2962     TIP3     OH2      OT      -0.834000       15.9994           0
     26235 TIP3     2962     TIP3     H1       HT       0.417000       1.00800           0
     26236 TIP3     2962     TIP3     H2       HT       0.417000       1.00800           0
     26237 TIP3     2963     TIP3     OH2      OT      -0.834000       15.9994           0
     26238 TIP3     2963     TIP3     H1       HT       0.417000       1.00800           0
     26239 TIP3     2963     TIP3     H2       HT       0.417000       1.00800           0
     26240 TIP3     2964     TIP3     OH2      OT      -0.834000       15.9994           0
     26241 TIP3     2964     TIP3     H1       HT       0.417000       1.00800           0
     26242 TIP3     2964     TIP3     H2       HT       0.417000       1.00800           0
     26243 TIP3     2965     TIP3     OH2      OT      -0.834000       15.9994           0
     26244 TIP3     2965     TIP3     H1       HT       0.417000       1.00800           0
     26245 TIP3     2965     TIP3     H2       HT       0.417000       1.00800           0
     26246 TIP3     2966     TIP3     OH2      OT      -0.834000       15.9994           0
     26247 TIP3     2966     TIP3     H1       HT       0.417000       1.00800           0
     26248 TIP3     2966     TIP3     H2       HT       0.417000       1.00800           0
     26249 TIP3     2967     TIP3     OH2      OT      -0.834000       15.9994           0
     26250 TIP3     2967     TIP3     H1       HT       0.417000       1.00800           0
     26251 TIP3     2967     TIP3     H2       HT       0.417000       1.00800           0
     26252 TIP3     2968     TIP3     OH2      OT      -0.834000       15.9994           0
     26253 TIP3     2968     TIP3     H1       HT       0.417000       1.00800           0
     26254 TIP3     2968     TIP3     H2       HT       0.417000       1.00800           0
     26255 TIP3     2969     TIP3     OH2      OT      -0.834000       15.9994           0
     26256 TIP3     2969     TIP3     H1       HT       0.417000       1.00800           0
     26257 TIP3     2969     TIP3     H2       HT       0.417000       1.00800           0
     26258 TIP3     2970     TIP3     OH2      OT      -0.834000       15.9994           0
     26259 TIP3     2970     TIP3     H1       HT       0.417000       1.00800           0
     26260 TIP3     2970     TIP3     H2       HT       0.417000       1.00800           0
     26261 TIP3     2971     TIP3     OH2      OT      -0.834000       15.9994           0
     26262 TIP3     2971     TIP3     H1       HT       0.417000       1.00800           0
     26263 TIP3     2971     TIP3     H2       HT       0.417000       1.00800           0
     26264 TIP3     2972     TIP3     OH2      OT      -0.834000       15.9994           0
     26265 TIP3     2972     TIP3     H1       HT       0.417000       1.00800           0
     26266 TIP3     2972     TIP3     H2       HT       0.417000       1.00800           0
     26267 TIP3     2973     TIP3     OH2      OT      -0.834000       15.9994           0
     26268 TIP3     2973     TIP3     H1       HT       0.417000       1.00800           0
     26269 TIP3     2973     TIP3     H2       HT       0.417000       1.00800           0
     26270 TIP3     2974     TIP3     OH2      OT      -0.834000       15.9994           0
     26271 TIP3     2974     TIP3     H1       HT       0.417000       1.00800           0
     26272 TIP3     2974     TIP3     H2       HT       0.417000       1.00800           0
     26273 TIP3     2975     TIP3     OH2      OT      -0.834000       15.9994           0
     26274 TIP3     2975     TIP3     H1       HT       0.417000       1.00800           0
     26275 TIP3     2975     TIP3     H2       HT       0.417000       1.00800           0
     26276 TIP3     2976     TIP3     OH2      OT      -0.834000       15.9994           0
     26277 TIP3     2976     TIP3     H1       HT       0.417000       1.00800           0
     26278 TIP3     2976     TIP3     H2       HT       0.417000       1.00800           0
     26279 TIP3     2977     TIP3     OH2      OT      -0.834000       15.9994           0
     26280 TIP3     2977     TIP3     H1       HT       0.417000       1.00800           0
     26281 TIP3     2977     TIP3     H2       HT       0.417000       1.00800           0
     26282 TIP3     2978     TIP3     OH2      OT      -0.834000       15.9994           0
     26283 TIP3     2978     TIP3     H1       HT       0.417000       1.00800           0
     26284 TIP3     2978     TIP3     H2       HT       0.417000       1.00800           0
     26285 TIP3     2979     TIP3     OH2      OT      -0.834000       15.9994           0
     26286 TIP3     2979     TIP3     H1       HT       0.417000       1.00800           0
     26287 TIP3     2979     TIP3     H2       HT       0.417000       1.00800           0
     26288 TIP3     2980     TIP3     OH2      OT      -0.834000       15.9994           0
     26289 TIP3     2980     TIP3     H1       HT       0.417000       1.00800           0
     26290 TIP3     2980     TIP3     H2       HT       0.417000       1.00800           0
     26291 TIP3     2981     TIP3     OH2      OT      -0.834000       15.9994           0
     26292 TIP3     2981     TIP3     H1       HT       0.417000       1.00800           0
     26293 TIP3     2981     TIP3     H2       HT       0.417000       1.00800           0
     26294 TIP3     2982     TIP3     OH2      OT      -0.834000       15.9994           0
     26295 TIP3     2982     TIP3     H1       HT       0.417000       1.00800           0
     26296 TIP3     2982     TIP3     H2       HT       0.417000       1.00800           0
     26297 TIP3     2983     TIP3     OH2      OT      -0.834000       15.9994           0
     26298 TIP3     2983     TIP3     H1       HT       0.417000       1.00800           0
     26299 TIP3     2983     TIP3     H2       HT       0.417000       1.00800           0
     26300 TIP3     2984     TIP3     OH2      OT      -0.834000       15.9994           0
     26301 TIP3     2984     TIP3     H1       HT       0.417000       1.00800           0
     26302 TIP3     2984     TIP3     H2       HT       0.417000       1.00800           0
     26303 TIP3     2985     TIP3     OH2      OT      -0.834000       15.9994           0
     26304 TIP3     2985     TIP3     H1       HT       0.417000       1.00800           0
     26305 TIP3     2985     TIP3     H2       HT       0.417000       1.00800           0
     26306 TIP3     2986     TIP3     OH2      OT      -0.834000       15.9994           0
     26307 TIP3     2986     TIP3     H1       HT       0.417000       1.00800           0
     26308 TIP3     2986     TIP3     H2       HT       0.417000       1.00800           0
     26309 TIP3     2987     TIP3     OH2      OT      -0.834000       15.9994           0
     26310 TIP3     2987     TIP3     H1       HT       0.417000       1.00800           0
     26311 TIP3     2987     TIP3     H2       HT       0.417000       1.00800           0
     26312 TIP3     2988     TIP3     OH2      OT      -0.834000       15.9994           0
     26313 TIP3     2988     TIP3     H1       HT       0.417000       1.00800           0
     26314 TIP3     2988     TIP3     H2       HT       0.417000       1.00800           0
     26315 TIP3     2989     TIP3     OH2      OT      -0.834000       15.9994           0
     26316 TIP3     2989     TIP3     H1       HT       0.417000       1.00800           0
     26317 TIP3     2989     TIP3     H2       HT       0.417000       1.00800           0
     26318 TIP3     2990     TIP3     OH2      OT      -0.834000       15.9994           0
     26319 TIP3     2990     TIP3     H1       HT       0.417000       1.00800           0
     26320 TIP3     2990     TIP3     H2       HT       0.417000       1.00800           0
     26321 TIP3     2991     TIP3     OH2      OT      -0.834000       15.9994           0
     26322 TIP3     2991     TIP3     H1       HT       0.417000       1.00800           0
     26323 TIP3     2991     TIP3     H2       HT       0.417000       1.00800           0
     26324 TIP3     2992     TIP3     OH2      OT      -0.834000       15.9994           0
     26325 TIP3     2992     TIP3     H1       HT       0.417000       1.00800           0
     26326 TIP3     2992     TIP3     H2       HT       0.417000       1.00800           0
     26327 TIP3     2993     TIP3     OH2      OT      -0.834000       15.9994           0
     26328 TIP3     2993     TIP3     H1       HT       0.417000       1.00800           0
     26329 TIP3     2993     TIP3     H2       HT       0.417000       1.00800           0
     26330 TIP3     2994     TIP3     OH2      OT      -0.834000       15.9994           0
     26331 TIP3     2994     TIP3     H1       HT       0.417000       1.00800           0
     26332 TIP3     2994     TIP3     H2       HT       0.417000       1.00800           0
     26333 TIP3     2995     TIP3     OH2      OT      -0.834000       15.9994           0
     26334 TIP3     2995     TIP3     H1       HT       0.417000       1.00800           0
     26335 TIP3     2995     TIP3     H2       HT       0.417000       1.00800           0
     26336 TIP3     2996     TIP3     OH2      OT      -0.834000       15.9994           0
     26337 TIP3     2996     TIP3     H1       HT       0.417000       1.00800           0
     26338 TIP3     2996     TIP3     H2       HT       0.417000       1.00800           0
     26339 TIP3     2997     TIP3     OH2      OT      -0.834000       15.9994           0
     26340 TIP3     2997     TIP3     H1       HT       0.417000       1.00800           0
     26341 TIP3     2997     TIP3     H2       HT       0.417000       1.00800           0
     26342 TIP3     2998     TIP3     OH2      OT      -0.834000       15.9994           0
     26343 TIP3     2998     TIP3     H1       HT       0.417000       1.00800           0
     26344 TIP3     2998     TIP3     H2       HT       0.417000       1.00800           0
     26345 TIP3     2999     TIP3     OH2      OT      -0.834000       15.9994           0
     26346 TIP3     2999     TIP3     H1       HT       0.417000       1.00800           0
     26347 TIP3     2999     TIP3     H2       HT       0.417000       1.00800           0
     26348 TIP3     3000     TIP3     OH2      OT      -0.834000       15.9994           0
     26349 TIP3     3000     TIP3     H1       HT       0.417000       1.00800           0
     26350 TIP3     3000     TIP3     H2       HT       0.417000       1.00800           0
     26351 TIP3     3001     TIP3     OH2      OT      -0.834000       15.9994           0
     26352 TIP3     3001     TIP3     H1       HT       0.417000       1.00800           0
     26353 TIP3     3001     TIP3     H2       HT       0.417000       1.00800           0
     26354 TIP3     3002     TIP3     OH2      OT      -0.834000       15.9994           0
     26355 TIP3     3002     TIP3     H1       HT       0.417000       1.00800           0
     26356 TIP3     3002     TIP3     H2       HT       0.417000       1.00800           0
     26357 TIP3     3003     TIP3     OH2      OT      -0.834000       15.9994           0
     26358 TIP3     3003     TIP3     H1       HT       0.417000       1.00800           0
     26359 TIP3     3003     TIP3     H2       HT       0.417000       1.00800           0
     26360 TIP3     3004     TIP3     OH2      OT      -0.834000       15.9994           0
     26361 TIP3     3004     TIP3     H1       HT       0.417000       1.00800           0
     26362 TIP3     3004     TIP3     H2       HT       0.417000       1.00800           0
     26363 TIP3     3005     TIP3     OH2      OT      -0.834000       15.9994           0
     26364 TIP3     3005     TIP3     H1       HT       0.417000       1.00800           0
     26365 TIP3     3005     TIP3     H2       HT       0.417000       1.00800           0
     26366 TIP3     3006     TIP3     OH2      OT      -0.834000       15.9994           0
     26367 TIP3     3006     TIP3     H1       HT       0.417000       1.00800           0
     26368 TIP3     3006     TIP3     H2       HT       0.417000       1.00800           0
     26369 TIP3     3007     TIP3     OH2      OT      -0.834000       15.9994           0
     26370 TIP3     3007     TIP3     H1       HT       0.417000       1.00800           0
     26371 TIP3     3007     TIP3     H2       HT       0.417000       1.00800           0
     26372 TIP3     3008     TIP3     OH2      OT      -0.834000       15.9994           0
     26373 TIP3     3008     TIP3     H1       HT       0.417000       1.00800           0
     26374 TIP3     3008     TIP3     H2       HT       0.417000       1.00800           0
     26375 TIP3     3009     TIP3     OH2      OT      -0.834000       15.9994           0
     26376 TIP3     3009     TIP3     H1       HT       0.417000       1.00800           0
     26377 TIP3     3009     TIP3     H2       HT       0.417000       1.00800           0
     26378 TIP3     3010     TIP3     OH2      OT      -0.834000       15.9994           0
     26379 TIP3     3010     TIP3     H1       HT       0.417000       1.00800           0
     26380 TIP3     3010     TIP3     H2       HT       0.417000       1.00800           0
     26381 TIP3     3011     TIP3     OH2      OT      -0.834000       15.9994           0
     26382 TIP3     3011     TIP3     H1       HT       0.417000       1.00800           0
     26383 TIP3     3011     TIP3     H2       HT       0.417000       1.00800           0
     26384 TIP3     3012     TIP3     OH2      OT      -0.834000       15.9994           0
     26385 TIP3     3012     TIP3     H1       HT       0.417000       1.00800           0
     26386 TIP3     3012     TIP3     H2       HT       0.417000       1.00800           0
     26387 TIP3     3013     TIP3     OH2      OT      -0.834000       15.9994           0
     26388 TIP3     3013     TIP3     H1       HT       0.417000       1.00800           0
     26389 TIP3     3013     TIP3     H2       HT       0.417000       1.00800           0
     26390 TIP3     3014     TIP3     OH2      OT      -0.834000       15.9994           0
     26391 TIP3     3014     TIP3     H1       HT       0.417000       1.00800           0
     26392 TIP3     3014     TIP3     H2       HT       0.417000       1.00800           0
     26393 TIP3     3015     TIP3     OH2      OT      -0.834000       15.9994           0
     26394 TIP3     3015     TIP3     H1       HT       0.417000       1.00800           0
     26395 TIP3     3015     TIP3     H2       HT       0.417000       1.00800           0
     26396 TIP3     3016     TIP3     OH2      OT      -0.834000       15.9994           0
     26397 TIP3     3016     TIP3     H1       HT       0.417000       1.00800           0
     26398 TIP3     3016     TIP3     H2       HT       0.417000       1.00800           0
     26399 TIP3     3017     TIP3     OH2      OT      -0.834000       15.9994           0
     26400 TIP3     3017     TIP3     H1       HT       0.417000       1.00800           0
     26401 TIP3     3017     TIP3     H2       HT       0.417000       1.00800           0
     26402 TIP3     3018     TIP3     OH2      OT      -0.834000       15.9994           0
     26403 TIP3     3018     TIP3     H1       HT       0.417000       1.00800           0
     26404 TIP3     3018     TIP3     H2       HT       0.417000       1.00800           0
     26405 TIP3     3019     TIP3     OH2      OT      -0.834000       15.9994           0
     26406 TIP3     3019     TIP3     H1       HT       0.417000       1.00800           0
     26407 TIP3     3019     TIP3     H2       HT       0.417000       1.00800           0
     26408 TIP3     3020     TIP3     OH2      OT      -0.834000       15.9994           0
     26409 TIP3     3020     TIP3     H1       HT       0.417000       1.00800           0
     26410 TIP3     3020     TIP3     H2       HT       0.417000       1.00800           0
     26411 TIP3     3021     TIP3     OH2      OT      -0.834000       15.9994           0
     26412 TIP3     3021     TIP3     H1       HT       0.417000       1.00800           0
     26413 TIP3     3021     TIP3     H2       HT       0.417000       1.00800           0
     26414 TIP3     3022     TIP3     OH2      OT      -0.834000       15.9994           0
     26415 TIP3     3022     TIP3     H1       HT       0.417000       1.00800           0
     26416 TIP3     3022     TIP3     H2       HT       0.417000       1.00800           0
     26417 TIP3     3023     TIP3     OH2      OT      -0.834000       15.9994           0
     26418 TIP3     3023     TIP3     H1       HT       0.417000       1.00800           0
     26419 TIP3     3023     TIP3     H2       HT       0.417000       1.00800           0
     26420 TIP3     3024     TIP3     OH2      OT      -0.834000       15.9994           0
     26421 TIP3     3024     TIP3     H1       HT       0.417000       1.00800           0
     26422 TIP3     3024     TIP3     H2       HT       0.417000       1.00800           0
     26423 TIP3     3025     TIP3     OH2      OT      -0.834000       15.9994           0
     26424 TIP3     3025     TIP3     H1       HT       0.417000       1.00800           0
     26425 TIP3     3025     TIP3     H2       HT       0.417000       1.00800           0
     26426 TIP3     3026     TIP3     OH2      OT      -0.834000       15.9994           0
     26427 TIP3     3026     TIP3     H1       HT       0.417000       1.00800           0
     26428 TIP3     3026     TIP3     H2       HT       0.417000       1.00800           0
     26429 TIP3     3027     TIP3     OH2      OT      -0.834000       15.9994           0
     26430 TIP3     3027     TIP3     H1       HT       0.417000       1.00800           0
     26431 TIP3     3027     TIP3     H2       HT       0.417000       1.00800           0
     26432 TIP3     3028     TIP3     OH2      OT      -0.834000       15.9994           0
     26433 TIP3     3028     TIP3     H1       HT       0.417000       1.00800           0
     26434 TIP3     3028     TIP3     H2       HT       0.417000       1.00800           0
     26435 TIP3     3029     TIP3     OH2      OT      -0.834000       15.9994           0
     26436 TIP3     3029     TIP3     H1       HT       0.417000       1.00800           0
     26437 TIP3     3029     TIP3     H2       HT       0.417000       1.00800           0
     26438 TIP3     3030     TIP3     OH2      OT      -0.834000       15.9994           0
     26439 TIP3     3030     TIP3     H1       HT       0.417000       1.00800           0
     26440 TIP3     3030     TIP3     H2       HT       0.417000       1.00800           0
     26441 TIP3     3031     TIP3     OH2      OT      -0.834000       15.9994           0
     26442 TIP3     3031     TIP3     H1       HT       0.417000       1.00800           0
     26443 TIP3     3031     TIP3     H2       HT       0.417000       1.00800           0
     26444 TIP3     3032     TIP3     OH2      OT      -0.834000       15.9994           0
     26445 TIP3     3032     TIP3     H1       HT       0.417000       1.00800           0
     26446 TIP3     3032     TIP3     H2       HT       0.417000       1.00800           0
     26447 TIP3     3033     TIP3     OH2      OT      -0.834000       15.9994           0
     26448 TIP3     3033     TIP3     H1       HT       0.417000       1.00800           0
     26449 TIP3     3033     TIP3     H2       HT       0.417000       1.00800           0
     26450 TIP3     3034     TIP3     OH2      OT      -0.834000       15.9994           0
     26451 TIP3     3034     TIP3     H1       HT       0.417000       1.00800           0
     26452 TIP3     3034     TIP3     H2       HT       0.417000       1.00800           0
     26453 TIP3     3035     TIP3     OH2      OT      -0.834000       15.9994           0
     26454 TIP3     3035     TIP3     H1       HT       0.417000       1.00800           0
     26455 TIP3     3035     TIP3     H2       HT       0.417000       1.00800           0
     26456 TIP3     3036     TIP3     OH2      OT      -0.834000       15.9994           0
     26457 TIP3     3036     TIP3     H1       HT       0.417000       1.00800           0
     26458 TIP3     3036     TIP3     H2       HT       0.417000       1.00800           0
     26459 TIP3     3037     TIP3     OH2      OT      -0.834000       15.9994           0
     26460 TIP3     3037     TIP3     H1       HT       0.417000       1.00800           0
     26461 TIP3     3037     TIP3     H2       HT       0.417000       1.00800           0
     26462 TIP3     3038     TIP3     OH2      OT      -0.834000       15.9994           0
     26463 TIP3     3038     TIP3     H1       HT       0.417000       1.00800           0
     26464 TIP3     3038     TIP3     H2       HT       0.417000       1.00800           0
     26465 TIP3     3039     TIP3     OH2      OT      -0.834000       15.9994           0
     26466 TIP3     3039     TIP3     H1       HT       0.417000       1.00800           0
     26467 TIP3     3039     TIP3     H2       HT       0.417000       1.00800           0
     26468 TIP3     3040     TIP3     OH2      OT      -0.834000       15.9994           0
     26469 TIP3     3040     TIP3     H1       HT       0.417000       1.00800           0
     26470 TIP3     3040     TIP3     H2       HT       0.417000       1.00800           0
     26471 TIP3     3041     TIP3     OH2      OT      -0.834000       15.9994           0
     26472 TIP3     3041     TIP3     H1       HT       0.417000       1.00800           0
     26473 TIP3     3041     TIP3     H2       HT       0.417000       1.00800           0
     26474 TIP3     3042     TIP3     OH2      OT      -0.834000       15.9994           0
     26475 TIP3     3042     TIP3     H1       HT       0.417000       1.00800           0
     26476 TIP3     3042     TIP3     H2       HT       0.417000       1.00800           0
     26477 TIP3     3043     TIP3     OH2      OT      -0.834000       15.9994           0
     26478 TIP3     3043     TIP3     H1       HT       0.417000       1.00800           0
     26479 TIP3     3043     TIP3     H2       HT       0.417000       1.00800           0
     26480 TIP3     3044     TIP3     OH2      OT      -0.834000       15.9994           0
     26481 TIP3     3044     TIP3     H1       HT       0.417000       1.00800           0
     26482 TIP3     3044     TIP3     H2       HT       0.417000       1.00800           0
     26483 TIP3     3045     TIP3     OH2      OT      -0.834000       15.9994           0
     26484 TIP3     3045     TIP3     H1       HT       0.417000       1.00800           0
     26485 TIP3     3045     TIP3     H2       HT       0.417000       1.00800           0
     26486 TIP3     3046     TIP3     OH2      OT      -0.834000       15.9994           0
     26487 TIP3     3046     TIP3     H1       HT       0.417000       1.00800           0
     26488 TIP3     3046     TIP3     H2       HT       0.417000       1.00800           0
     26489 TIP3     3047     TIP3     OH2      OT      -0.834000       15.9994           0
     26490 TIP3     3047     TIP3     H1       HT       0.417000       1.00800           0
     26491 TIP3     3047     TIP3     H2       HT       0.417000       1.00800           0
     26492 TIP3     3048     TIP3     OH2      OT      -0.834000       15.9994           0
     26493 TIP3     3048     TIP3     H1       HT       0.417000       1.00800           0
     26494 TIP3     3048     TIP3     H2       HT       0.417000       1.00800           0
     26495 TIP3     3049     TIP3     OH2      OT      -0.834000       15.9994           0
     26496 TIP3     3049     TIP3     H1       HT       0.417000       1.00800           0
     26497 TIP3     3049     TIP3     H2       HT       0.417000       1.00800           0
     26498 TIP3     3050     TIP3     OH2      OT      -0.834000       15.9994           0
     26499 TIP3     3050     TIP3     H1       HT       0.417000       1.00800           0
     26500 TIP3     3050     TIP3     H2       HT       0.417000       1.00800           0
     26501 TIP3     3051     TIP3     OH2      OT      -0.834000       15.9994           0
     26502 TIP3     3051     TIP3     H1       HT       0.417000       1.00800           0
     26503 TIP3     3051     TIP3     H2       HT       0.417000       1.00800           0
     26504 TIP3     3052     TIP3     OH2      OT      -0.834000       15.9994           0
     26505 TIP3     3052     TIP3     H1       HT       0.417000       1.00800           0
     26506 TIP3     3052     TIP3     H2       HT       0.417000       1.00800           0
     26507 TIP3     3053     TIP3     OH2      OT      -0.834000       15.9994           0
     26508 TIP3     3053     TIP3     H1       HT       0.417000       1.00800           0
     26509 TIP3     3053     TIP3     H2       HT       0.417000       1.00800           0
     26510 TIP3     3054     TIP3     OH2      OT      -0.834000       15.9994           0
     26511 TIP3     3054     TIP3     H1       HT       0.417000       1.00800           0
     26512 TIP3     3054     TIP3     H2       HT       0.417000       1.00800           0
     26513 TIP3     3055     TIP3     OH2      OT      -0.834000       15.9994           0
     26514 TIP3     3055     TIP3     H1       HT       0.417000       1.00800           0
     26515 TIP3     3055     TIP3     H2       HT       0.417000       1.00800           0
     26516 TIP3     3056     TIP3     OH2      OT      -0.834000       15.9994           0
     26517 TIP3     3056     TIP3     H1       HT       0.417000       1.00800           0
     26518 TIP3     3056     TIP3     H2       HT       0.417000       1.00800           0
     26519 TIP3     3057     TIP3     OH2      OT      -0.834000       15.9994           0
     26520 TIP3     3057     TIP3     H1       HT       0.417000       1.00800           0
     26521 TIP3     3057     TIP3     H2       HT       0.417000       1.00800           0
     26522 TIP3     3058     TIP3     OH2      OT      -0.834000       15.9994           0
     26523 TIP3     3058     TIP3     H1       HT       0.417000       1.00800           0
     26524 TIP3     3058     TIP3     H2       HT       0.417000       1.00800           0
     26525 TIP3     3059     TIP3     OH2      OT      -0.834000       15.9994           0
     26526 TIP3     3059     TIP3     H1       HT       0.417000       1.00800           0
     26527 TIP3     3059     TIP3     H2       HT       0.417000       1.00800           0
     26528 TIP3     3060     TIP3     OH2      OT      -0.834000       15.9994           0
     26529 TIP3     3060     TIP3     H1       HT       0.417000       1.00800           0
     26530 TIP3     3060     TIP3     H2       HT       0.417000       1.00800           0
     26531 TIP3     3061     TIP3     OH2      OT      -0.834000       15.9994           0
     26532 TIP3     3061     TIP3     H1       HT       0.417000       1.00800           0
     26533 TIP3     3061     TIP3     H2       HT       0.417000       1.00800           0
     26534 TIP3     3062     TIP3     OH2      OT      -0.834000       15.9994           0
     26535 TIP3     3062     TIP3     H1       HT       0.417000       1.00800           0
     26536 TIP3     3062     TIP3     H2       HT       0.417000       1.00800           0
     26537 TIP3     3063     TIP3     OH2      OT      -0.834000       15.9994           0
     26538 TIP3     3063     TIP3     H1       HT       0.417000       1.00800           0
     26539 TIP3     3063     TIP3     H2       HT       0.417000       1.00800           0
     26540 TIP3     3064     TIP3     OH2      OT      -0.834000       15.9994           0
     26541 TIP3     3064     TIP3     H1       HT       0.417000       1.00800           0
     26542 TIP3     3064     TIP3     H2       HT       0.417000       1.00800           0
     26543 TIP3     3065     TIP3     OH2      OT      -0.834000       15.9994           0
     26544 TIP3     3065     TIP3     H1       HT       0.417000       1.00800           0
     26545 TIP3     3065     TIP3     H2       HT       0.417000       1.00800           0
     26546 TIP3     3066     TIP3     OH2      OT      -0.834000       15.9994           0
     26547 TIP3     3066     TIP3     H1       HT       0.417000       1.00800           0
     26548 TIP3     3066     TIP3     H2       HT       0.417000       1.00800           0
     26549 TIP3     3067     TIP3     OH2      OT      -0.834000       15.9994           0
     26550 TIP3     3067     TIP3     H1       HT       0.417000       1.00800           0
     26551 TIP3     3067     TIP3     H2       HT       0.417000       1.00800           0
     26552 TIP3     3068     TIP3     OH2      OT      -0.834000       15.9994           0
     26553 TIP3     3068     TIP3     H1       HT       0.417000       1.00800           0
     26554 TIP3     3068     TIP3     H2       HT       0.417000       1.00800           0
     26555 TIP3     3069     TIP3     OH2      OT      -0.834000       15.9994           0
     26556 TIP3     3069     TIP3     H1       HT       0.417000       1.00800           0
     26557 TIP3     3069     TIP3     H2       HT       0.417000       1.00800           0
     26558 TIP3     3070     TIP3     OH2      OT      -0.834000       15.9994           0
     26559 TIP3     3070     TIP3     H1       HT       0.417000       1.00800           0
     26560 TIP3     3070     TIP3     H2       HT       0.417000       1.00800           0
     26561 TIP3     3071     TIP3     OH2      OT      -0.834000       15.9994           0
     26562 TIP3     3071     TIP3     H1       HT       0.417000       1.00800           0
     26563 TIP3     3071     TIP3     H2       HT       0.417000       1.00800           0
     26564 TIP3     3072     TIP3     OH2      OT      -0.834000       15.9994           0
     26565 TIP3     3072     TIP3     H1       HT       0.417000       1.00800           0
     26566 TIP3     3072     TIP3     H2       HT       0.417000       1.00800           0
     26567 TIP3     3073     TIP3     OH2      OT      -0.834000       15.9994           0
     26568 TIP3     3073     TIP3     H1       HT       0.417000       1.00800           0
     26569 TIP3     3073     TIP3     H2       HT       0.417000       1.00800           0
     26570 TIP3     3074     TIP3     OH2      OT      -0.834000       15.9994           0
     26571 TIP3     3074     TIP3     H1       HT       0.417000       1.00800           0
     26572 TIP3     3074     TIP3     H2       HT       0.417000       1.00800           0
     26573 TIP3     3075     TIP3     OH2      OT      -0.834000       15.9994           0
     26574 TIP3     3075     TIP3     H1       HT       0.417000       1.00800           0
     26575 TIP3     3075     TIP3     H2       HT       0.417000       1.00800           0
     26576 TIP3     3076     TIP3     OH2      OT      -0.834000       15.9994           0
     26577 TIP3     3076     TIP3     H1       HT       0.417000       1.00800           0
     26578 TIP3     3076     TIP3     H2       HT       0.417000       1.00800           0
     26579 TIP3     3077     TIP3     OH2      OT      -0.834000       15.9994           0
     26580 TIP3     3077     TIP3     H1       HT       0.417000       1.00800           0
     26581 TIP3     3077     TIP3     H2       HT       0.417000       1.00800           0
     26582 TIP3     3078     TIP3     OH2      OT      -0.834000       15.9994           0
     26583 TIP3     3078     TIP3     H1       HT       0.417000       1.00800           0
     26584 TIP3     3078     TIP3     H2       HT       0.417000       1.00800           0
     26585 TIP3     3079     TIP3     OH2      OT      -0.834000       15.9994           0
     26586 TIP3     3079     TIP3     H1       HT       0.417000       1.00800           0
     26587 TIP3     3079     TIP3     H2       HT       0.417000       1.00800           0
     26588 TIP3     3080     TIP3     OH2      OT      -0.834000       15.9994           0
     26589 TIP3     3080     TIP3     H1       HT       0.417000       1.00800           0
     26590 TIP3     3080     TIP3     H2       HT       0.417000       1.00800           0
     26591 TIP3     3081     TIP3     OH2      OT      -0.834000       15.9994           0
     26592 TIP3     3081     TIP3     H1       HT       0.417000       1.00800           0
     26593 TIP3     3081     TIP3     H2       HT       0.417000       1.00800           0
     26594 TIP3     3082     TIP3     OH2      OT      -0.834000       15.9994           0
     26595 TIP3     3082     TIP3     H1       HT       0.417000       1.00800           0
     26596 TIP3     3082     TIP3     H2       HT       0.417000       1.00800           0
     26597 TIP3     3083     TIP3     OH2      OT      -0.834000       15.9994           0
     26598 TIP3     3083     TIP3     H1       HT       0.417000       1.00800           0
     26599 TIP3     3083     TIP3     H2       HT       0.417000       1.00800           0
     26600 TIP3     3084     TIP3     OH2      OT      -0.834000       15.9994           0
     26601 TIP3     3084     TIP3     H1       HT       0.417000       1.00800           0
     26602 TIP3     3084     TIP3     H2       HT       0.417000       1.00800           0
     26603 TIP3     3085     TIP3     OH2      OT      -0.834000       15.9994           0
     26604 TIP3     3085     TIP3     H1       HT       0.417000       1.00800           0
     26605 TIP3     3085     TIP3     H2       HT       0.417000       1.00800           0
     26606 TIP3     3086     TIP3     OH2      OT      -0.834000       15.9994           0
     26607 TIP3     3086     TIP3     H1       HT       0.417000       1.00800           0
     26608 TIP3     3086     TIP3     H2       HT       0.417000       1.00800           0
     26609 TIP3     3087     TIP3     OH2      OT      -0.834000       15.9994           0
     26610 TIP3     3087     TIP3     H1       HT       0.417000       1.00800           0
     26611 TIP3     3087     TIP3     H2       HT       0.417000       1.00800           0
     26612 TIP3     3088     TIP3     OH2      OT      -0.834000       15.9994           0
     26613 TIP3     3088     TIP3     H1       HT       0.417000       1.00800           0
     26614 TIP3     3088     TIP3     H2       HT       0.417000       1.00800           0
     26615 TIP3     3089     TIP3     OH2      OT      -0.834000       15.9994           0
     26616 TIP3     3089     TIP3     H1       HT       0.417000       1.00800           0
     26617 TIP3     3089     TIP3     H2       HT       0.417000       1.00800           0
     26618 TIP3     3090     TIP3     OH2      OT      -0.834000       15.9994           0
     26619 TIP3     3090     TIP3     H1       HT       0.417000       1.00800           0
     26620 TIP3     3090     TIP3     H2       HT       0.417000       1.00800           0
     26621 TIP3     3091     TIP3     OH2      OT      -0.834000       15.9994           0
     26622 TIP3     3091     TIP3     H1       HT       0.417000       1.00800           0
     26623 TIP3     3091     TIP3     H2       HT       0.417000       1.00800           0
     26624 TIP3     3092     TIP3     OH2      OT      -0.834000       15.9994           0
     26625 TIP3     3092     TIP3     H1       HT       0.417000       1.00800           0
     26626 TIP3     3092     TIP3     H2       HT       0.417000       1.00800           0
     26627 TIP3     3093     TIP3     OH2      OT      -0.834000       15.9994           0
     26628 TIP3     3093     TIP3     H1       HT       0.417000       1.00800           0
     26629 TIP3     3093     TIP3     H2       HT       0.417000       1.00800           0
     26630 TIP3     3094     TIP3     OH2      OT      -0.834000       15.9994           0
     26631 TIP3     3094     TIP3     H1       HT       0.417000       1.00800           0
     26632 TIP3     3094     TIP3     H2       HT       0.417000       1.00800           0
     26633 TIP3     3095     TIP3     OH2      OT      -0.834000       15.9994           0
     26634 TIP3     3095     TIP3     H1       HT       0.417000       1.00800           0
     26635 TIP3     3095     TIP3     H2       HT       0.417000       1.00800           0
     26636 TIP3     3096     TIP3     OH2      OT      -0.834000       15.9994           0
     26637 TIP3     3096     TIP3     H1       HT       0.417000       1.00800           0
     26638 TIP3     3096     TIP3     H2       HT       0.417000       1.00800           0
     26639 TIP3     3097     TIP3     OH2      OT      -0.834000       15.9994           0
     26640 TIP3     3097     TIP3     H1       HT       0.417000       1.00800           0
     26641 TIP3     3097     TIP3     H2       HT       0.417000       1.00800           0
     26642 TIP3     3098     TIP3     OH2      OT      -0.834000       15.9994           0
     26643 TIP3     3098     TIP3     H1       HT       0.417000       1.00800           0
     26644 TIP3     3098     TIP3     H2       HT       0.417000       1.00800           0
     26645 TIP3     3099     TIP3     OH2      OT      -0.834000       15.9994           0
     26646 TIP3     3099     TIP3     H1       HT       0.417000       1.00800           0
     26647 TIP3     3099     TIP3     H2       HT       0.417000       1.00800           0
     26648 TIP3     3100     TIP3     OH2      OT      -0.834000       15.9994           0
     26649 TIP3     3100     TIP3     H1       HT       0.417000       1.00800           0
     26650 TIP3     3100     TIP3     H2       HT       0.417000       1.00800           0
     26651 TIP3     3101     TIP3     OH2      OT      -0.834000       15.9994           0
     26652 TIP3     3101     TIP3     H1       HT       0.417000       1.00800           0
     26653 TIP3     3101     TIP3     H2       HT       0.417000       1.00800           0
     26654 TIP3     3102     TIP3     OH2      OT      -0.834000       15.9994           0
     26655 TIP3     3102     TIP3     H1       HT       0.417000       1.00800           0
     26656 TIP3     3102     TIP3     H2       HT       0.417000       1.00800           0
     26657 TIP3     3103     TIP3     OH2      OT      -0.834000       15.9994           0
     26658 TIP3     3103     TIP3     H1       HT       0.417000       1.00800           0
     26659 TIP3     3103     TIP3     H2       HT       0.417000       1.00800           0
     26660 TIP3     3104     TIP3     OH2      OT      -0.834000       15.9994           0
     26661 TIP3     3104     TIP3     H1       HT       0.417000       1.00800           0
     26662 TIP3     3104     TIP3     H2       HT       0.417000       1.00800           0
     26663 TIP3     3105     TIP3     OH2      OT      -0.834000       15.9994           0
     26664 TIP3     3105     TIP3     H1       HT       0.417000       1.00800           0
     26665 TIP3     3105     TIP3     H2       HT       0.417000       1.00800           0
     26666 TIP3     3106     TIP3     OH2      OT      -0.834000       15.9994           0
     26667 TIP3     3106     TIP3     H1       HT       0.417000       1.00800           0
     26668 TIP3     3106     TIP3     H2       HT       0.417000       1.00800           0
     26669 TIP3     3107     TIP3     OH2      OT      -0.834000       15.9994           0
     26670 TIP3     3107     TIP3     H1       HT       0.417000       1.00800           0
     26671 TIP3     3107     TIP3     H2       HT       0.417000       1.00800           0
     26672 TIP3     3108     TIP3     OH2      OT      -0.834000       15.9994           0
     26673 TIP3     3108     TIP3     H1       HT       0.417000       1.00800           0
     26674 TIP3     3108     TIP3     H2       HT       0.417000       1.00800           0
     26675 TIP3     3109     TIP3     OH2      OT      -0.834000       15.9994           0
     26676 TIP3     3109     TIP3     H1       HT       0.417000       1.00800           0
     26677 TIP3     3109     TIP3     H2       HT       0.417000       1.00800           0
     26678 TIP3     3110     TIP3     OH2      OT      -0.834000       15.9994           0
     26679 TIP3     3110     TIP3     H1       HT       0.417000       1.00800           0
     26680 TIP3     3110     TIP3     H2       HT       0.417000       1.00800           0
     26681 TIP3     3111     TIP3     OH2      OT      -0.834000       15.9994           0
     26682 TIP3     3111     TIP3     H1       HT       0.417000       1.00800           0
     26683 TIP3     3111     TIP3     H2       HT       0.417000       1.00800           0
     26684 TIP3     3112     TIP3     OH2      OT      -0.834000       15.9994           0
     26685 TIP3     3112     TIP3     H1       HT       0.417000       1.00800           0
     26686 TIP3     3112     TIP3     H2       HT       0.417000       1.00800           0
     26687 TIP3     3113     TIP3     OH2      OT      -0.834000       15.9994           0
     26688 TIP3     3113     TIP3     H1       HT       0.417000       1.00800           0
     26689 TIP3     3113     TIP3     H2       HT       0.417000       1.00800           0
     26690 TIP3     3114     TIP3     OH2      OT      -0.834000       15.9994           0
     26691 TIP3     3114     TIP3     H1       HT       0.417000       1.00800           0
     26692 TIP3     3114     TIP3     H2       HT       0.417000       1.00800           0
     26693 TIP3     3115     TIP3     OH2      OT      -0.834000       15.9994           0
     26694 TIP3     3115     TIP3     H1       HT       0.417000       1.00800           0
     26695 TIP3     3115     TIP3     H2       HT       0.417000       1.00800           0
     26696 TIP3     3116     TIP3     OH2      OT      -0.834000       15.9994           0
     26697 TIP3     3116     TIP3     H1       HT       0.417000       1.00800           0
     26698 TIP3     3116     TIP3     H2       HT       0.417000       1.00800           0
     26699 TIP3     3117     TIP3     OH2      OT      -0.834000       15.9994           0
     26700 TIP3     3117     TIP3     H1       HT       0.417000       1.00800           0
     26701 TIP3     3117     TIP3     H2       HT       0.417000       1.00800           0
     26702 TIP3     3118     TIP3     OH2      OT      -0.834000       15.9994           0
     26703 TIP3     3118     TIP3     H1       HT       0.417000       1.00800           0
     26704 TIP3     3118     TIP3     H2       HT       0.417000       1.00800           0
     26705 TIP3     3119     TIP3     OH2      OT      -0.834000       15.9994           0
     26706 TIP3     3119     TIP3     H1       HT       0.417000       1.00800           0
     26707 TIP3     3119     TIP3     H2       HT       0.417000       1.00800           0
     26708 TIP3     3120     TIP3     OH2      OT      -0.834000       15.9994           0
     26709 TIP3     3120     TIP3     H1       HT       0.417000       1.00800           0
     26710 TIP3     3120     TIP3     H2       HT       0.417000       1.00800           0
     26711 TIP3     3121     TIP3     OH2      OT      -0.834000       15.9994           0
     26712 TIP3     3121     TIP3     H1       HT       0.417000       1.00800           0
     26713 TIP3     3121     TIP3     H2       HT       0.417000       1.00800           0
     26714 TIP3     3122     TIP3     OH2      OT      -0.834000       15.9994           0
     26715 TIP3     3122     TIP3     H1       HT       0.417000       1.00800           0
     26716 TIP3     3122     TIP3     H2       HT       0.417000       1.00800           0
     26717 TIP3     3123     TIP3     OH2      OT      -0.834000       15.9994           0
     26718 TIP3     3123     TIP3     H1       HT       0.417000       1.00800           0
     26719 TIP3     3123     TIP3     H2       HT       0.417000       1.00800           0
     26720 TIP3     3124     TIP3     OH2      OT      -0.834000       15.9994           0
     26721 TIP3     3124     TIP3     H1       HT       0.417000       1.00800           0
     26722 TIP3     3124     TIP3     H2       HT       0.417000       1.00800           0
     26723 TIP3     3125     TIP3     OH2      OT      -0.834000       15.9994           0
     26724 TIP3     3125     TIP3     H1       HT       0.417000       1.00800           0
     26725 TIP3     3125     TIP3     H2       HT       0.417000       1.00800           0
     26726 TIP3     3126     TIP3     OH2      OT      -0.834000       15.9994           0
     26727 TIP3     3126     TIP3     H1       HT       0.417000       1.00800           0
     26728 TIP3     3126     TIP3     H2       HT       0.417000       1.00800           0
     26729 TIP3     3127     TIP3     OH2      OT      -0.834000       15.9994           0
     26730 TIP3     3127     TIP3     H1       HT       0.417000       1.00800           0
     26731 TIP3     3127     TIP3     H2       HT       0.417000       1.00800           0
     26732 TIP3     3128     TIP3     OH2      OT      -0.834000       15.9994           0
     26733 TIP3     3128     TIP3     H1       HT       0.417000       1.00800           0
     26734 TIP3     3128     TIP3     H2       HT       0.417000       1.00800           0
     26735 TIP3     3129     TIP3     OH2      OT      -0.834000       15.9994           0
     26736 TIP3     3129     TIP3     H1       HT       0.417000       1.00800           0
     26737 TIP3     3129     TIP3     H2       HT       0.417000       1.00800           0
     26738 TIP3     3130     TIP3     OH2      OT      -0.834000       15.9994           0
     26739 TIP3     3130     TIP3     H1       HT       0.417000       1.00800           0
     26740 TIP3     3130     TIP3     H2       HT       0.417000       1.00800           0
     26741 TIP3     3131     TIP3     OH2      OT      -0.834000       15.9994           0
     26742 TIP3     3131     TIP3     H1       HT       0.417000       1.00800           0
     26743 TIP3     3131     TIP3     H2       HT       0.417000       1.00800           0
     26744 TIP3     3132     TIP3     OH2      OT      -0.834000       15.9994           0
     26745 TIP3     3132     TIP3     H1       HT       0.417000       1.00800           0
     26746 TIP3     3132     TIP3     H2       HT       0.417000       1.00800           0
     26747 TIP3     3133     TIP3     OH2      OT      -0.834000       15.9994           0
     26748 TIP3     3133     TIP3     H1       HT       0.417000       1.00800           0
     26749 TIP3     3133     TIP3     H2       HT       0.417000       1.00800           0
     26750 TIP3     3134     TIP3     OH2      OT      -0.834000       15.9994           0
     26751 TIP3     3134     TIP3     H1       HT       0.417000       1.00800           0
     26752 TIP3     3134     TIP3     H2       HT       0.417000       1.00800           0
     26753 TIP3     3135     TIP3     OH2      OT      -0.834000       15.9994           0
     26754 TIP3     3135     TIP3     H1       HT       0.417000       1.00800           0
     26755 TIP3     3135     TIP3     H2       HT       0.417000       1.00800           0
     26756 TIP3     3136     TIP3     OH2      OT      -0.834000       15.9994           0
     26757 TIP3     3136     TIP3     H1       HT       0.417000       1.00800           0
     26758 TIP3     3136     TIP3     H2       HT       0.417000       1.00800           0
     26759 TIP3     3137     TIP3     OH2      OT      -0.834000       15.9994           0
     26760 TIP3     3137     TIP3     H1       HT       0.417000       1.00800           0
     26761 TIP3     3137     TIP3     H2       HT       0.417000       1.00800           0
     26762 TIP3     3138     TIP3     OH2      OT      -0.834000       15.9994           0
     26763 TIP3     3138     TIP3     H1       HT       0.417000       1.00800           0
     26764 TIP3     3138     TIP3     H2       HT       0.417000       1.00800           0
     26765 TIP3     3139     TIP3     OH2      OT      -0.834000       15.9994           0
     26766 TIP3     3139     TIP3     H1       HT       0.417000       1.00800           0
     26767 TIP3     3139     TIP3     H2       HT       0.417000       1.00800           0
     26768 TIP3     3140     TIP3     OH2      OT      -0.834000       15.9994           0
     26769 TIP3     3140     TIP3     H1       HT       0.417000       1.00800           0
     26770 TIP3     3140     TIP3     H2       HT       0.417000       1.00800           0
     26771 TIP3     3141     TIP3     OH2      OT      -0.834000       15.9994           0
     26772 TIP3     3141     TIP3     H1       HT       0.417000       1.00800           0
     26773 TIP3     3141     TIP3     H2       HT       0.417000       1.00800           0
     26774 TIP3     3142     TIP3     OH2      OT      -0.834000       15.9994           0
     26775 TIP3     3142     TIP3     H1       HT       0.417000       1.00800           0
     26776 TIP3     3142     TIP3     H2       HT       0.417000       1.00800           0
     26777 TIP3     3143     TIP3     OH2      OT      -0.834000       15.9994           0
     26778 TIP3     3143     TIP3     H1       HT       0.417000       1.00800           0
     26779 TIP3     3143     TIP3     H2       HT       0.417000       1.00800           0
     26780 TIP3     3144     TIP3     OH2      OT      -0.834000       15.9994           0
     26781 TIP3     3144     TIP3     H1       HT       0.417000       1.00800           0
     26782 TIP3     3144     TIP3     H2       HT       0.417000       1.00800           0
     26783 TIP3     3145     TIP3     OH2      OT      -0.834000       15.9994           0
     26784 TIP3     3145     TIP3     H1       HT       0.417000       1.00800           0
     26785 TIP3     3145     TIP3     H2       HT       0.417000       1.00800           0
     26786 TIP3     3146     TIP3     OH2      OT      -0.834000       15.9994           0
     26787 TIP3     3146     TIP3     H1       HT       0.417000       1.00800           0
     26788 TIP3     3146     TIP3     H2       HT       0.417000       1.00800           0
     26789 TIP3     3147     TIP3     OH2      OT      -0.834000       15.9994           0
     26790 TIP3     3147     TIP3     H1       HT       0.417000       1.00800           0
     26791 TIP3     3147     TIP3     H2       HT       0.417000       1.00800           0
     26792 TIP3     3148     TIP3     OH2      OT      -0.834000       15.9994           0
     26793 TIP3     3148     TIP3     H1       HT       0.417000       1.00800           0
     26794 TIP3     3148     TIP3     H2       HT       0.417000       1.00800           0
     26795 TIP3     3149     TIP3     OH2      OT      -0.834000       15.9994           0
     26796 TIP3     3149     TIP3     H1       HT       0.417000       1.00800           0
     26797 TIP3     3149     TIP3     H2       HT       0.417000       1.00800           0
     26798 TIP3     3150     TIP3     OH2      OT      -0.834000       15.9994           0
     26799 TIP3     3150     TIP3     H1       HT       0.417000       1.00800           0
     26800 TIP3     3150     TIP3     H2       HT       0.417000       1.00800           0
     26801 TIP3     3151     TIP3     OH2      OT      -0.834000       15.9994           0
     26802 TIP3     3151     TIP3     H1       HT       0.417000       1.00800           0
     26803 TIP3     3151     TIP3     H2       HT       0.417000       1.00800           0
     26804 TIP3     3152     TIP3     OH2      OT      -0.834000       15.9994           0
     26805 TIP3     3152     TIP3     H1       HT       0.417000       1.00800           0
     26806 TIP3     3152     TIP3     H2       HT       0.417000       1.00800           0
     26807 TIP3     3153     TIP3     OH2      OT      -0.834000       15.9994           0
     26808 TIP3     3153     TIP3     H1       HT       0.417000       1.00800           0
     26809 TIP3     3153     TIP3     H2       HT       0.417000       1.00800           0
     26810 TIP3     3154     TIP3     OH2      OT      -0.834000       15.9994           0
     26811 TIP3     3154     TIP3     H1       HT       0.417000       1.00800           0
     26812 TIP3     3154     TIP3     H2       HT       0.417000       1.00800           0
     26813 TIP3     3155     TIP3     OH2      OT      -0.834000       15.9994           0
     26814 TIP3     3155     TIP3     H1       HT       0.417000       1.00800           0
     26815 TIP3     3155     TIP3     H2       HT       0.417000       1.00800           0
     26816 TIP3     3156     TIP3     OH2      OT      -0.834000       15.9994           0
     26817 TIP3     3156     TIP3     H1       HT       0.417000       1.00800           0
     26818 TIP3     3156     TIP3     H2       HT       0.417000       1.00800           0
     26819 TIP3     3157     TIP3     OH2      OT      -0.834000       15.9994           0
     26820 TIP3     3157     TIP3     H1       HT       0.417000       1.00800           0
     26821 TIP3     3157     TIP3     H2       HT       0.417000       1.00800           0
     26822 TIP3     3158     TIP3     OH2      OT      -0.834000       15.9994           0
     26823 TIP3     3158     TIP3     H1       HT       0.417000       1.00800           0
     26824 TIP3     3158     TIP3     H2       HT       0.417000       1.00800           0
     26825 TIP3     3159     TIP3     OH2      OT      -0.834000       15.9994           0
     26826 TIP3     3159     TIP3     H1       HT       0.417000       1.00800           0
     26827 TIP3     3159     TIP3     H2       HT       0.417000       1.00800           0
     26828 TIP3     3160     TIP3     OH2      OT      -0.834000       15.9994           0
     26829 TIP3     3160     TIP3     H1       HT       0.417000       1.00800           0
     26830 TIP3     3160     TIP3     H2       HT       0.417000       1.00800           0
     26831 TIP3     3161     TIP3     OH2      OT      -0.834000       15.9994           0
     26832 TIP3     3161     TIP3     H1       HT       0.417000       1.00800           0
     26833 TIP3     3161     TIP3     H2       HT       0.417000       1.00800           0
     26834 TIP3     3162     TIP3     OH2      OT      -0.834000       15.9994           0
     26835 TIP3     3162     TIP3     H1       HT       0.417000       1.00800           0
     26836 TIP3     3162     TIP3     H2       HT       0.417000       1.00800           0
     26837 TIP3     3163     TIP3     OH2      OT      -0.834000       15.9994           0
     26838 TIP3     3163     TIP3     H1       HT       0.417000       1.00800           0
     26839 TIP3     3163     TIP3     H2       HT       0.417000       1.00800           0
     26840 TIP3     3164     TIP3     OH2      OT      -0.834000       15.9994           0
     26841 TIP3     3164     TIP3     H1       HT       0.417000       1.00800           0
     26842 TIP3     3164     TIP3     H2       HT       0.417000       1.00800           0
     26843 TIP3     3165     TIP3     OH2      OT      -0.834000       15.9994           0
     26844 TIP3     3165     TIP3     H1       HT       0.417000       1.00800           0
     26845 TIP3     3165     TIP3     H2       HT       0.417000       1.00800           0
     26846 TIP3     3166     TIP3     OH2      OT      -0.834000       15.9994           0
     26847 TIP3     3166     TIP3     H1       HT       0.417000       1.00800           0
     26848 TIP3     3166     TIP3     H2       HT       0.417000       1.00800           0
     26849 TIP3     3167     TIP3     OH2      OT      -0.834000       15.9994           0
     26850 TIP3     3167     TIP3     H1       HT       0.417000       1.00800           0
     26851 TIP3     3167     TIP3     H2       HT       0.417000       1.00800           0
     26852 TIP3     3168     TIP3     OH2      OT      -0.834000       15.9994           0
     26853 TIP3     3168     TIP3     H1       HT       0.417000       1.00800           0
     26854 TIP3     3168     TIP3     H2       HT       0.417000       1.00800           0
     26855 TIP3     3169     TIP3     OH2      OT      -0.834000       15.9994           0
     26856 TIP3     3169     TIP3     H1       HT       0.417000       1.00800           0
     26857 TIP3     3169     TIP3     H2       HT       0.417000       1.00800           0
     26858 TIP3     3170     TIP3     OH2      OT      -0.834000       15.9994           0
     26859 TIP3     3170     TIP3     H1       HT       0.417000       1.00800           0
     26860 TIP3     3170     TIP3     H2       HT       0.417000       1.00800           0
     26861 TIP3     3171     TIP3     OH2      OT      -0.834000       15.9994           0
     26862 TIP3     3171     TIP3     H1       HT       0.417000       1.00800           0
     26863 TIP3     3171     TIP3     H2       HT       0.417000       1.00800           0
     26864 TIP3     3172     TIP3     OH2      OT      -0.834000       15.9994           0
     26865 TIP3     3172     TIP3     H1       HT       0.417000       1.00800           0
     26866 TIP3     3172     TIP3     H2       HT       0.417000       1.00800           0
     26867 TIP3     3173     TIP3     OH2      OT      -0.834000       15.9994           0
     26868 TIP3     3173     TIP3     H1       HT       0.417000       1.00800           0
     26869 TIP3     3173     TIP3     H2       HT       0.417000       1.00800           0
     26870 TIP3     3174     TIP3     OH2      OT      -0.834000       15.9994           0
     26871 TIP3     3174     TIP3     H1       HT       0.417000       1.00800           0
     26872 TIP3     3174     TIP3     H2       HT       0.417000       1.00800           0
     26873 TIP3     3175     TIP3     OH2      OT      -0.834000       15.9994           0
     26874 TIP3     3175     TIP3     H1       HT       0.417000       1.00800           0
     26875 TIP3     3175     TIP3     H2       HT       0.417000       1.00800           0
     26876 TIP3     3176     TIP3     OH2      OT      -0.834000       15.9994           0
     26877 TIP3     3176     TIP3     H1       HT       0.417000       1.00800           0
     26878 TIP3     3176     TIP3     H2       HT       0.417000       1.00800           0
     26879 TIP3     3177     TIP3     OH2      OT      -0.834000       15.9994           0
     26880 TIP3     3177     TIP3     H1       HT       0.417000       1.00800           0
     26881 TIP3     3177     TIP3     H2       HT       0.417000       1.00800           0
     26882 TIP3     3178     TIP3     OH2      OT      -0.834000       15.9994           0
     26883 TIP3     3178     TIP3     H1       HT       0.417000       1.00800           0
     26884 TIP3     3178     TIP3     H2       HT       0.417000       1.00800           0
     26885 TIP3     3179     TIP3     OH2      OT      -0.834000       15.9994           0
     26886 TIP3     3179     TIP3     H1       HT       0.417000       1.00800           0
     26887 TIP3     3179     TIP3     H2       HT       0.417000       1.00800           0
     26888 TIP3     3180     TIP3     OH2      OT      -0.834000       15.9994           0
     26889 TIP3     3180     TIP3     H1       HT       0.417000       1.00800           0
     26890 TIP3     3180     TIP3     H2       HT       0.417000       1.00800           0
     26891 TIP3     3181     TIP3     OH2      OT      -0.834000       15.9994           0
     26892 TIP3     3181     TIP3     H1       HT       0.417000       1.00800           0
     26893 TIP3     3181     TIP3     H2       HT       0.417000       1.00800           0
     26894 TIP3     3182     TIP3     OH2      OT      -0.834000       15.9994           0
     26895 TIP3     3182     TIP3     H1       HT       0.417000       1.00800           0
     26896 TIP3     3182     TIP3     H2       HT       0.417000       1.00800           0
     26897 TIP3     3183     TIP3     OH2      OT      -0.834000       15.9994           0
     26898 TIP3     3183     TIP3     H1       HT       0.417000       1.00800           0
     26899 TIP3     3183     TIP3     H2       HT       0.417000       1.00800           0
     26900 TIP3     3184     TIP3     OH2      OT      -0.834000       15.9994           0
     26901 TIP3     3184     TIP3     H1       HT       0.417000       1.00800           0
     26902 TIP3     3184     TIP3     H2       HT       0.417000       1.00800           0
     26903 TIP3     3185     TIP3     OH2      OT      -0.834000       15.9994           0
     26904 TIP3     3185     TIP3     H1       HT       0.417000       1.00800           0
     26905 TIP3     3185     TIP3     H2       HT       0.417000       1.00800           0
     26906 TIP3     3186     TIP3     OH2      OT      -0.834000       15.9994           0
     26907 TIP3     3186     TIP3     H1       HT       0.417000       1.00800           0
     26908 TIP3     3186     TIP3     H2       HT       0.417000       1.00800           0
     26909 TIP3     3187     TIP3     OH2      OT      -0.834000       15.9994           0
     26910 TIP3     3187     TIP3     H1       HT       0.417000       1.00800           0
     26911 TIP3     3187     TIP3     H2       HT       0.417000       1.00800           0
     26912 TIP3     3188     TIP3     OH2      OT      -0.834000       15.9994           0
     26913 TIP3     3188     TIP3     H1       HT       0.417000       1.00800           0
     26914 TIP3     3188     TIP3     H2       HT       0.417000       1.00800           0
     26915 TIP3     3189     TIP3     OH2      OT      -0.834000       15.9994           0
     26916 TIP3     3189     TIP3     H1       HT       0.417000       1.00800           0
     26917 TIP3     3189     TIP3     H2       HT       0.417000       1.00800           0
     26918 TIP3     3190     TIP3     OH2      OT      -0.834000       15.9994           0
     26919 TIP3     3190     TIP3     H1       HT       0.417000       1.00800           0
     26920 TIP3     3190     TIP3     H2       HT       0.417000       1.00800           0
     26921 TIP3     3191     TIP3     OH2      OT      -0.834000       15.9994           0
     26922 TIP3     3191     TIP3     H1       HT       0.417000       1.00800           0
     26923 TIP3     3191     TIP3     H2       HT       0.417000       1.00800           0
     26924 TIP3     3192     TIP3     OH2      OT      -0.834000       15.9994           0
     26925 TIP3     3192     TIP3     H1       HT       0.417000       1.00800           0
     26926 TIP3     3192     TIP3     H2       HT       0.417000       1.00800           0
     26927 TIP3     3193     TIP3     OH2      OT      -0.834000       15.9994           0
     26928 TIP3     3193     TIP3     H1       HT       0.417000       1.00800           0
     26929 TIP3     3193     TIP3     H2       HT       0.417000       1.00800           0
     26930 TIP3     3194     TIP3     OH2      OT      -0.834000       15.9994           0
     26931 TIP3     3194     TIP3     H1       HT       0.417000       1.00800           0
     26932 TIP3     3194     TIP3     H2       HT       0.417000       1.00800           0
     26933 TIP3     3195     TIP3     OH2      OT      -0.834000       15.9994           0
     26934 TIP3     3195     TIP3     H1       HT       0.417000       1.00800           0
     26935 TIP3     3195     TIP3     H2       HT       0.417000       1.00800           0
     26936 TIP3     3196     TIP3     OH2      OT      -0.834000       15.9994           0
     26937 TIP3     3196     TIP3     H1       HT       0.417000       1.00800           0
     26938 TIP3     3196     TIP3     H2       HT       0.417000       1.00800           0
     26939 TIP3     3197     TIP3     OH2      OT      -0.834000       15.9994           0
     26940 TIP3     3197     TIP3     H1       HT       0.417000       1.00800           0
     26941 TIP3     3197     TIP3     H2       HT       0.417000       1.00800           0
     26942 TIP3     3198     TIP3     OH2      OT      -0.834000       15.9994           0
     26943 TIP3     3198     TIP3     H1       HT       0.417000       1.00800           0
     26944 TIP3     3198     TIP3     H2       HT       0.417000       1.00800           0
     26945 TIP3     3199     TIP3     OH2      OT      -0.834000       15.9994           0
     26946 TIP3     3199     TIP3     H1       HT       0.417000       1.00800           0
     26947 TIP3     3199     TIP3     H2       HT       0.417000       1.00800           0
     26948 TIP3     3200     TIP3     OH2      OT      -0.834000       15.9994           0
     26949 TIP3     3200     TIP3     H1       HT       0.417000       1.00800           0
     26950 TIP3     3200     TIP3     H2       HT       0.417000       1.00800           0
     26951 TIP3     3201     TIP3     OH2      OT      -0.834000       15.9994           0
     26952 TIP3     3201     TIP3     H1       HT       0.417000       1.00800           0
     26953 TIP3     3201     TIP3     H2       HT       0.417000       1.00800           0
     26954 TIP3     3202     TIP3     OH2      OT      -0.834000       15.9994           0
     26955 TIP3     3202     TIP3     H1       HT       0.417000       1.00800           0
     26956 TIP3     3202     TIP3     H2       HT       0.417000       1.00800           0
     26957 TIP3     3203     TIP3     OH2      OT      -0.834000       15.9994           0
     26958 TIP3     3203     TIP3     H1       HT       0.417000       1.00800           0
     26959 TIP3     3203     TIP3     H2       HT       0.417000       1.00800           0
     26960 TIP3     3204     TIP3     OH2      OT      -0.834000       15.9994           0
     26961 TIP3     3204     TIP3     H1       HT       0.417000       1.00800           0
     26962 TIP3     3204     TIP3     H2       HT       0.417000       1.00800           0
     26963 TIP3     3205     TIP3     OH2      OT      -0.834000       15.9994           0
     26964 TIP3     3205     TIP3     H1       HT       0.417000       1.00800           0
     26965 TIP3     3205     TIP3     H2       HT       0.417000       1.00800           0
     26966 TIP3     3206     TIP3     OH2      OT      -0.834000       15.9994           0
     26967 TIP3     3206     TIP3     H1       HT       0.417000       1.00800           0
     26968 TIP3     3206     TIP3     H2       HT       0.417000       1.00800           0
     26969 TIP3     3207     TIP3     OH2      OT      -0.834000       15.9994           0
     26970 TIP3     3207     TIP3     H1       HT       0.417000       1.00800           0
     26971 TIP3     3207     TIP3     H2       HT       0.417000       1.00800           0
     26972 TIP3     3208     TIP3     OH2      OT      -0.834000       15.9994           0
     26973 TIP3     3208     TIP3     H1       HT       0.417000       1.00800           0
     26974 TIP3     3208     TIP3     H2       HT       0.417000       1.00800           0
     26975 TIP3     3209     TIP3     OH2      OT      -0.834000       15.9994           0
     26976 TIP3     3209     TIP3     H1       HT       0.417000       1.00800           0
     26977 TIP3     3209     TIP3     H2       HT       0.417000       1.00800           0
     26978 TIP3     3210     TIP3     OH2      OT      -0.834000       15.9994           0
     26979 TIP3     3210     TIP3     H1       HT       0.417000       1.00800           0
     26980 TIP3     3210     TIP3     H2       HT       0.417000       1.00800           0
     26981 TIP3     3211     TIP3     OH2      OT      -0.834000       15.9994           0
     26982 TIP3     3211     TIP3     H1       HT       0.417000       1.00800           0
     26983 TIP3     3211     TIP3     H2       HT       0.417000       1.00800           0
     26984 TIP3     3212     TIP3     OH2      OT      -0.834000       15.9994           0
     26985 TIP3     3212     TIP3     H1       HT       0.417000       1.00800           0
     26986 TIP3     3212     TIP3     H2       HT       0.417000       1.00800           0
     26987 TIP3     3213     TIP3     OH2      OT      -0.834000       15.9994           0
     26988 TIP3     3213     TIP3     H1       HT       0.417000       1.00800           0
     26989 TIP3     3213     TIP3     H2       HT       0.417000       1.00800           0
     26990 TIP3     3214     TIP3     OH2      OT      -0.834000       15.9994           0
     26991 TIP3     3214     TIP3     H1       HT       0.417000       1.00800           0
     26992 TIP3     3214     TIP3     H2       HT       0.417000       1.00800           0
     26993 TIP3     3215     TIP3     OH2      OT      -0.834000       15.9994           0
     26994 TIP3     3215     TIP3     H1       HT       0.417000       1.00800           0
     26995 TIP3     3215     TIP3     H2       HT       0.417000       1.00800           0
     26996 TIP3     3216     TIP3     OH2      OT      -0.834000       15.9994           0
     26997 TIP3     3216     TIP3     H1       HT       0.417000       1.00800           0
     26998 TIP3     3216     TIP3     H2       HT       0.417000       1.00800           0
     26999 TIP3     3217     TIP3     OH2      OT      -0.834000       15.9994           0
     27000 TIP3     3217     TIP3     H1       HT       0.417000       1.00800           0
     27001 TIP3     3217     TIP3     H2       HT       0.417000       1.00800           0
     27002 TIP3     3218     TIP3     OH2      OT      -0.834000       15.9994           0
     27003 TIP3     3218     TIP3     H1       HT       0.417000       1.00800           0
     27004 TIP3     3218     TIP3     H2       HT       0.417000       1.00800           0
     27005 TIP3     3219     TIP3     OH2      OT      -0.834000       15.9994           0
     27006 TIP3     3219     TIP3     H1       HT       0.417000       1.00800           0
     27007 TIP3     3219     TIP3     H2       HT       0.417000       1.00800           0
     27008 TIP3     3220     TIP3     OH2      OT      -0.834000       15.9994           0
     27009 TIP3     3220     TIP3     H1       HT       0.417000       1.00800           0
     27010 TIP3     3220     TIP3     H2       HT       0.417000       1.00800           0
     27011 TIP3     3221     TIP3     OH2      OT      -0.834000       15.9994           0
     27012 TIP3     3221     TIP3     H1       HT       0.417000       1.00800           0
     27013 TIP3     3221     TIP3     H2       HT       0.417000       1.00800           0
     27014 TIP3     3222     TIP3     OH2      OT      -0.834000       15.9994           0
     27015 TIP3     3222     TIP3     H1       HT       0.417000       1.00800           0
     27016 TIP3     3222     TIP3     H2       HT       0.417000       1.00800           0
     27017 TIP3     3223     TIP3     OH2      OT      -0.834000       15.9994           0
     27018 TIP3     3223     TIP3     H1       HT       0.417000       1.00800           0
     27019 TIP3     3223     TIP3     H2       HT       0.417000       1.00800           0
     27020 TIP3     3224     TIP3     OH2      OT      -0.834000       15.9994           0
     27021 TIP3     3224     TIP3     H1       HT       0.417000       1.00800           0
     27022 TIP3     3224     TIP3     H2       HT       0.417000       1.00800           0
     27023 TIP3     3225     TIP3     OH2      OT      -0.834000       15.9994           0
     27024 TIP3     3225     TIP3     H1       HT       0.417000       1.00800           0
     27025 TIP3     3225     TIP3     H2       HT       0.417000       1.00800           0
     27026 TIP3     3226     TIP3     OH2      OT      -0.834000       15.9994           0
     27027 TIP3     3226     TIP3     H1       HT       0.417000       1.00800           0
     27028 TIP3     3226     TIP3     H2       HT       0.417000       1.00800           0
     27029 TIP3     3227     TIP3     OH2      OT      -0.834000       15.9994           0
     27030 TIP3     3227     TIP3     H1       HT       0.417000       1.00800           0
     27031 TIP3     3227     TIP3     H2       HT       0.417000       1.00800           0
     27032 TIP3     3228     TIP3     OH2      OT      -0.834000       15.9994           0
     27033 TIP3     3228     TIP3     H1       HT       0.417000       1.00800           0
     27034 TIP3     3228     TIP3     H2       HT       0.417000       1.00800           0
     27035 TIP3     3229     TIP3     OH2      OT      -0.834000       15.9994           0
     27036 TIP3     3229     TIP3     H1       HT       0.417000       1.00800           0
     27037 TIP3     3229     TIP3     H2       HT       0.417000       1.00800           0
     27038 TIP3     3230     TIP3     OH2      OT      -0.834000       15.9994           0
     27039 TIP3     3230     TIP3     H1       HT       0.417000       1.00800           0
     27040 TIP3     3230     TIP3     H2       HT       0.417000       1.00800           0
     27041 TIP3     3231     TIP3     OH2      OT      -0.834000       15.9994           0
     27042 TIP3     3231     TIP3     H1       HT       0.417000       1.00800           0
     27043 TIP3     3231     TIP3     H2       HT       0.417000       1.00800           0
     27044 TIP3     3232     TIP3     OH2      OT      -0.834000       15.9994           0
     27045 TIP3     3232     TIP3     H1       HT       0.417000       1.00800           0
     27046 TIP3     3232     TIP3     H2       HT       0.417000       1.00800           0
     27047 TIP3     3233     TIP3     OH2      OT      -0.834000       15.9994           0
     27048 TIP3     3233     TIP3     H1       HT       0.417000       1.00800           0
     27049 TIP3     3233     TIP3     H2       HT       0.417000       1.00800           0
     27050 TIP3     3234     TIP3     OH2      OT      -0.834000       15.9994           0
     27051 TIP3     3234     TIP3     H1       HT       0.417000       1.00800           0
     27052 TIP3     3234     TIP3     H2       HT       0.417000       1.00800           0
     27053 TIP3     3235     TIP3     OH2      OT      -0.834000       15.9994           0
     27054 TIP3     3235     TIP3     H1       HT       0.417000       1.00800           0
     27055 TIP3     3235     TIP3     H2       HT       0.417000       1.00800           0
     27056 TIP3     3236     TIP3     OH2      OT      -0.834000       15.9994           0
     27057 TIP3     3236     TIP3     H1       HT       0.417000       1.00800           0
     27058 TIP3     3236     TIP3     H2       HT       0.417000       1.00800           0
     27059 TIP3     3237     TIP3     OH2      OT      -0.834000       15.9994           0
     27060 TIP3     3237     TIP3     H1       HT       0.417000       1.00800           0
     27061 TIP3     3237     TIP3     H2       HT       0.417000       1.00800           0
     27062 TIP3     3238     TIP3     OH2      OT      -0.834000       15.9994           0
     27063 TIP3     3238     TIP3     H1       HT       0.417000       1.00800           0
     27064 TIP3     3238     TIP3     H2       HT       0.417000       1.00800           0
     27065 TIP3     3239     TIP3     OH2      OT      -0.834000       15.9994           0
     27066 TIP3     3239     TIP3     H1       HT       0.417000       1.00800           0
     27067 TIP3     3239     TIP3     H2       HT       0.417000       1.00800           0
     27068 TIP3     3240     TIP3     OH2      OT      -0.834000       15.9994           0
     27069 TIP3     3240     TIP3     H1       HT       0.417000       1.00800           0
     27070 TIP3     3240     TIP3     H2       HT       0.417000       1.00800           0
     27071 TIP3     3241     TIP3     OH2      OT      -0.834000       15.9994           0
     27072 TIP3     3241     TIP3     H1       HT       0.417000       1.00800           0
     27073 TIP3     3241     TIP3     H2       HT       0.417000       1.00800           0
     27074 TIP3     3242     TIP3     OH2      OT      -0.834000       15.9994           0
     27075 TIP3     3242     TIP3     H1       HT       0.417000       1.00800           0
     27076 TIP3     3242     TIP3     H2       HT       0.417000       1.00800           0
     27077 TIP3     3243     TIP3     OH2      OT      -0.834000       15.9994           0
     27078 TIP3     3243     TIP3     H1       HT       0.417000       1.00800           0
     27079 TIP3     3243     TIP3     H2       HT       0.417000       1.00800           0
     27080 TIP3     3244     TIP3     OH2      OT      -0.834000       15.9994           0
     27081 TIP3     3244     TIP3     H1       HT       0.417000       1.00800           0
     27082 TIP3     3244     TIP3     H2       HT       0.417000       1.00800           0
     27083 TIP3     3245     TIP3     OH2      OT      -0.834000       15.9994           0
     27084 TIP3     3245     TIP3     H1       HT       0.417000       1.00800           0
     27085 TIP3     3245     TIP3     H2       HT       0.417000       1.00800           0
     27086 TIP3     3246     TIP3     OH2      OT      -0.834000       15.9994           0
     27087 TIP3     3246     TIP3     H1       HT       0.417000       1.00800           0
     27088 TIP3     3246     TIP3     H2       HT       0.417000       1.00800           0
     27089 TIP3     3247     TIP3     OH2      OT      -0.834000       15.9994           0
     27090 TIP3     3247     TIP3     H1       HT       0.417000       1.00800           0
     27091 TIP3     3247     TIP3     H2       HT       0.417000       1.00800           0
     27092 TIP3     3248     TIP3     OH2      OT      -0.834000       15.9994           0
     27093 TIP3     3248     TIP3     H1       HT       0.417000       1.00800           0
     27094 TIP3     3248     TIP3     H2       HT       0.417000       1.00800           0
     27095 TIP3     3249     TIP3     OH2      OT      -0.834000       15.9994           0
     27096 TIP3     3249     TIP3     H1       HT       0.417000       1.00800           0
     27097 TIP3     3249     TIP3     H2       HT       0.417000       1.00800           0
     27098 TIP3     3250     TIP3     OH2      OT      -0.834000       15.9994           0
     27099 TIP3     3250     TIP3     H1       HT       0.417000       1.00800           0
     27100 TIP3     3250     TIP3     H2       HT       0.417000       1.00800           0
     27101 TIP3     3251     TIP3     OH2      OT      -0.834000       15.9994           0
     27102 TIP3     3251     TIP3     H1       HT       0.417000       1.00800           0
     27103 TIP3     3251     TIP3     H2       HT       0.417000       1.00800           0
     27104 TIP3     3252     TIP3     OH2      OT      -0.834000       15.9994           0
     27105 TIP3     3252     TIP3     H1       HT       0.417000       1.00800           0
     27106 TIP3     3252     TIP3     H2       HT       0.417000       1.00800           0
     27107 TIP3     3253     TIP3     OH2      OT      -0.834000       15.9994           0
     27108 TIP3     3253     TIP3     H1       HT       0.417000       1.00800           0
     27109 TIP3     3253     TIP3     H2       HT       0.417000       1.00800           0
     27110 TIP3     3254     TIP3     OH2      OT      -0.834000       15.9994           0
     27111 TIP3     3254     TIP3     H1       HT       0.417000       1.00800           0
     27112 TIP3     3254     TIP3     H2       HT       0.417000       1.00800           0
     27113 TIP3     3255     TIP3     OH2      OT      -0.834000       15.9994           0
     27114 TIP3     3255     TIP3     H1       HT       0.417000       1.00800           0
     27115 TIP3     3255     TIP3     H2       HT       0.417000       1.00800           0
     27116 TIP3     3256     TIP3     OH2      OT      -0.834000       15.9994           0
     27117 TIP3     3256     TIP3     H1       HT       0.417000       1.00800           0
     27118 TIP3     3256     TIP3     H2       HT       0.417000       1.00800           0
     27119 TIP3     3257     TIP3     OH2      OT      -0.834000       15.9994           0
     27120 TIP3     3257     TIP3     H1       HT       0.417000       1.00800           0
     27121 TIP3     3257     TIP3     H2       HT       0.417000       1.00800           0
     27122 TIP3     3258     TIP3     OH2      OT      -0.834000       15.9994           0
     27123 TIP3     3258     TIP3     H1       HT       0.417000       1.00800           0
     27124 TIP3     3258     TIP3     H2       HT       0.417000       1.00800           0
     27125 TIP3     3259     TIP3     OH2      OT      -0.834000       15.9994           0
     27126 TIP3     3259     TIP3     H1       HT       0.417000       1.00800           0
     27127 TIP3     3259     TIP3     H2       HT       0.417000       1.00800           0
     27128 TIP3     3260     TIP3     OH2      OT      -0.834000       15.9994           0
     27129 TIP3     3260     TIP3     H1       HT       0.417000       1.00800           0
     27130 TIP3     3260     TIP3     H2       HT       0.417000       1.00800           0
     27131 TIP3     3261     TIP3     OH2      OT      -0.834000       15.9994           0
     27132 TIP3     3261     TIP3     H1       HT       0.417000       1.00800           0
     27133 TIP3     3261     TIP3     H2       HT       0.417000       1.00800           0
     27134 TIP3     3262     TIP3     OH2      OT      -0.834000       15.9994           0
     27135 TIP3     3262     TIP3     H1       HT       0.417000       1.00800           0
     27136 TIP3     3262     TIP3     H2       HT       0.417000       1.00800           0
     27137 TIP3     3263     TIP3     OH2      OT      -0.834000       15.9994           0
     27138 TIP3     3263     TIP3     H1       HT       0.417000       1.00800           0
     27139 TIP3     3263     TIP3     H2       HT       0.417000       1.00800           0
     27140 TIP3     3264     TIP3     OH2      OT      -0.834000       15.9994           0
     27141 TIP3     3264     TIP3     H1       HT       0.417000       1.00800           0
     27142 TIP3     3264     TIP3     H2       HT       0.417000       1.00800           0
     27143 TIP3     3265     TIP3     OH2      OT      -0.834000       15.9994           0
     27144 TIP3     3265     TIP3     H1       HT       0.417000       1.00800           0
     27145 TIP3     3265     TIP3     H2       HT       0.417000       1.00800           0
     27146 TIP3     3266     TIP3     OH2      OT      -0.834000       15.9994           0
     27147 TIP3     3266     TIP3     H1       HT       0.417000       1.00800           0
     27148 TIP3     3266     TIP3     H2       HT       0.417000       1.00800           0
     27149 TIP3     3267     TIP3     OH2      OT      -0.834000       15.9994           0
     27150 TIP3     3267     TIP3     H1       HT       0.417000       1.00800           0
     27151 TIP3     3267     TIP3     H2       HT       0.417000       1.00800           0
     27152 TIP3     3268     TIP3     OH2      OT      -0.834000       15.9994           0
     27153 TIP3     3268     TIP3     H1       HT       0.417000       1.00800           0
     27154 TIP3     3268     TIP3     H2       HT       0.417000       1.00800           0
     27155 TIP3     3269     TIP3     OH2      OT      -0.834000       15.9994           0
     27156 TIP3     3269     TIP3     H1       HT       0.417000       1.00800           0
     27157 TIP3     3269     TIP3     H2       HT       0.417000       1.00800           0
     27158 TIP3     3270     TIP3     OH2      OT      -0.834000       15.9994           0
     27159 TIP3     3270     TIP3     H1       HT       0.417000       1.00800           0
     27160 TIP3     3270     TIP3     H2       HT       0.417000       1.00800           0
     27161 TIP3     3271     TIP3     OH2      OT      -0.834000       15.9994           0
     27162 TIP3     3271     TIP3     H1       HT       0.417000       1.00800           0
     27163 TIP3     3271     TIP3     H2       HT       0.417000       1.00800           0
     27164 TIP3     3272     TIP3     OH2      OT      -0.834000       15.9994           0
     27165 TIP3     3272     TIP3     H1       HT       0.417000       1.00800           0
     27166 TIP3     3272     TIP3     H2       HT       0.417000       1.00800           0
     27167 TIP3     3273     TIP3     OH2      OT      -0.834000       15.9994           0
     27168 TIP3     3273     TIP3     H1       HT       0.417000       1.00800           0
     27169 TIP3     3273     TIP3     H2       HT       0.417000       1.00800           0
     27170 TIP3     3274     TIP3     OH2      OT      -0.834000       15.9994           0
     27171 TIP3     3274     TIP3     H1       HT       0.417000       1.00800           0
     27172 TIP3     3274     TIP3     H2       HT       0.417000       1.00800           0
     27173 TIP3     3275     TIP3     OH2      OT      -0.834000       15.9994           0
     27174 TIP3     3275     TIP3     H1       HT       0.417000       1.00800           0
     27175 TIP3     3275     TIP3     H2       HT       0.417000       1.00800           0
     27176 TIP3     3276     TIP3     OH2      OT      -0.834000       15.9994           0
     27177 TIP3     3276     TIP3     H1       HT       0.417000       1.00800           0
     27178 TIP3     3276     TIP3     H2       HT       0.417000       1.00800           0
     27179 TIP3     3277     TIP3     OH2      OT      -0.834000       15.9994           0
     27180 TIP3     3277     TIP3     H1       HT       0.417000       1.00800           0
     27181 TIP3     3277     TIP3     H2       HT       0.417000       1.00800           0
     27182 TIP3     3278     TIP3     OH2      OT      -0.834000       15.9994           0
     27183 TIP3     3278     TIP3     H1       HT       0.417000       1.00800           0
     27184 TIP3     3278     TIP3     H2       HT       0.417000       1.00800           0
     27185 TIP3     3279     TIP3     OH2      OT      -0.834000       15.9994           0
     27186 TIP3     3279     TIP3     H1       HT       0.417000       1.00800           0
     27187 TIP3     3279     TIP3     H2       HT       0.417000       1.00800           0
     27188 TIP3     3280     TIP3     OH2      OT      -0.834000       15.9994           0
     27189 TIP3     3280     TIP3     H1       HT       0.417000       1.00800           0
     27190 TIP3     3280     TIP3     H2       HT       0.417000       1.00800           0
     27191 TIP3     3281     TIP3     OH2      OT      -0.834000       15.9994           0
     27192 TIP3     3281     TIP3     H1       HT       0.417000       1.00800           0
     27193 TIP3     3281     TIP3     H2       HT       0.417000       1.00800           0
     27194 TIP3     3282     TIP3     OH2      OT      -0.834000       15.9994           0
     27195 TIP3     3282     TIP3     H1       HT       0.417000       1.00800           0
     27196 TIP3     3282     TIP3     H2       HT       0.417000       1.00800           0
     27197 TIP3     3283     TIP3     OH2      OT      -0.834000       15.9994           0
     27198 TIP3     3283     TIP3     H1       HT       0.417000       1.00800           0
     27199 TIP3     3283     TIP3     H2       HT       0.417000       1.00800           0
     27200 TIP3     3284     TIP3     OH2      OT      -0.834000       15.9994           0
     27201 TIP3     3284     TIP3     H1       HT       0.417000       1.00800           0
     27202 TIP3     3284     TIP3     H2       HT       0.417000       1.00800           0
     27203 TIP3     3285     TIP3     OH2      OT      -0.834000       15.9994           0
     27204 TIP3     3285     TIP3     H1       HT       0.417000       1.00800           0
     27205 TIP3     3285     TIP3     H2       HT       0.417000       1.00800           0
     27206 TIP3     3286     TIP3     OH2      OT      -0.834000       15.9994           0
     27207 TIP3     3286     TIP3     H1       HT       0.417000       1.00800           0
     27208 TIP3     3286     TIP3     H2       HT       0.417000       1.00800           0
     27209 TIP3     3287     TIP3     OH2      OT      -0.834000       15.9994           0
     27210 TIP3     3287     TIP3     H1       HT       0.417000       1.00800           0
     27211 TIP3     3287     TIP3     H2       HT       0.417000       1.00800           0
     27212 TIP3     3288     TIP3     OH2      OT      -0.834000       15.9994           0
     27213 TIP3     3288     TIP3     H1       HT       0.417000       1.00800           0
     27214 TIP3     3288     TIP3     H2       HT       0.417000       1.00800           0
     27215 TIP3     3289     TIP3     OH2      OT      -0.834000       15.9994           0
     27216 TIP3     3289     TIP3     H1       HT       0.417000       1.00800           0
     27217 TIP3     3289     TIP3     H2       HT       0.417000       1.00800           0
     27218 TIP3     3290     TIP3     OH2      OT      -0.834000       15.9994           0
     27219 TIP3     3290     TIP3     H1       HT       0.417000       1.00800           0
     27220 TIP3     3290     TIP3     H2       HT       0.417000       1.00800           0
     27221 TIP3     3291     TIP3     OH2      OT      -0.834000       15.9994           0
     27222 TIP3     3291     TIP3     H1       HT       0.417000       1.00800           0
     27223 TIP3     3291     TIP3     H2       HT       0.417000       1.00800           0
     27224 TIP3     3292     TIP3     OH2      OT      -0.834000       15.9994           0
     27225 TIP3     3292     TIP3     H1       HT       0.417000       1.00800           0
     27226 TIP3     3292     TIP3     H2       HT       0.417000       1.00800           0
     27227 TIP3     3293     TIP3     OH2      OT      -0.834000       15.9994           0
     27228 TIP3     3293     TIP3     H1       HT       0.417000       1.00800           0
     27229 TIP3     3293     TIP3     H2       HT       0.417000       1.00800           0
     27230 TIP3     3294     TIP3     OH2      OT      -0.834000       15.9994           0
     27231 TIP3     3294     TIP3     H1       HT       0.417000       1.00800           0
     27232 TIP3     3294     TIP3     H2       HT       0.417000       1.00800           0
     27233 TIP3     3295     TIP3     OH2      OT      -0.834000       15.9994           0
     27234 TIP3     3295     TIP3     H1       HT       0.417000       1.00800           0
     27235 TIP3     3295     TIP3     H2       HT       0.417000       1.00800           0
     27236 TIP3     3296     TIP3     OH2      OT      -0.834000       15.9994           0
     27237 TIP3     3296     TIP3     H1       HT       0.417000       1.00800           0
     27238 TIP3     3296     TIP3     H2       HT       0.417000       1.00800           0
     27239 TIP3     3297     TIP3     OH2      OT      -0.834000       15.9994           0
     27240 TIP3     3297     TIP3     H1       HT       0.417000       1.00800           0
     27241 TIP3     3297     TIP3     H2       HT       0.417000       1.00800           0
     27242 TIP3     3298     TIP3     OH2      OT      -0.834000       15.9994           0
     27243 TIP3     3298     TIP3     H1       HT       0.417000       1.00800           0
     27244 TIP3     3298     TIP3     H2       HT       0.417000       1.00800           0
     27245 TIP3     3299     TIP3     OH2      OT      -0.834000       15.9994           0
     27246 TIP3     3299     TIP3     H1       HT       0.417000       1.00800           0
     27247 TIP3     3299     TIP3     H2       HT       0.417000       1.00800           0
     27248 TIP3     3300     TIP3     OH2      OT      -0.834000       15.9994           0
     27249 TIP3     3300     TIP3     H1       HT       0.417000       1.00800           0
     27250 TIP3     3300     TIP3     H2       HT       0.417000       1.00800           0
     27251 TIP3     3301     TIP3     OH2      OT      -0.834000       15.9994           0
     27252 TIP3     3301     TIP3     H1       HT       0.417000       1.00800           0
     27253 TIP3     3301     TIP3     H2       HT       0.417000       1.00800           0
     27254 TIP3     3302     TIP3     OH2      OT      -0.834000       15.9994           0
     27255 TIP3     3302     TIP3     H1       HT       0.417000       1.00800           0
     27256 TIP3     3302     TIP3     H2       HT       0.417000       1.00800           0
     27257 TIP3     3303     TIP3     OH2      OT      -0.834000       15.9994           0
     27258 TIP3     3303     TIP3     H1       HT       0.417000       1.00800           0
     27259 TIP3     3303     TIP3     H2       HT       0.417000       1.00800           0
     27260 TIP3     3304     TIP3     OH2      OT      -0.834000       15.9994           0
     27261 TIP3     3304     TIP3     H1       HT       0.417000       1.00800           0
     27262 TIP3     3304     TIP3     H2       HT       0.417000       1.00800           0
     27263 TIP3     3305     TIP3     OH2      OT      -0.834000       15.9994           0
     27264 TIP3     3305     TIP3     H1       HT       0.417000       1.00800           0
     27265 TIP3     3305     TIP3     H2       HT       0.417000       1.00800           0
     27266 TIP3     3306     TIP3     OH2      OT      -0.834000       15.9994           0
     27267 TIP3     3306     TIP3     H1       HT       0.417000       1.00800           0
     27268 TIP3     3306     TIP3     H2       HT       0.417000       1.00800           0
     27269 TIP3     3307     TIP3     OH2      OT      -0.834000       15.9994           0
     27270 TIP3     3307     TIP3     H1       HT       0.417000       1.00800           0
     27271 TIP3     3307     TIP3     H2       HT       0.417000       1.00800           0
     27272 TIP3     3308     TIP3     OH2      OT      -0.834000       15.9994           0
     27273 TIP3     3308     TIP3     H1       HT       0.417000       1.00800           0
     27274 TIP3     3308     TIP3     H2       HT       0.417000       1.00800           0
     27275 TIP3     3309     TIP3     OH2      OT      -0.834000       15.9994           0
     27276 TIP3     3309     TIP3     H1       HT       0.417000       1.00800           0
     27277 TIP3     3309     TIP3     H2       HT       0.417000       1.00800           0
     27278 TIP3     3310     TIP3     OH2      OT      -0.834000       15.9994           0
     27279 TIP3     3310     TIP3     H1       HT       0.417000       1.00800           0
     27280 TIP3     3310     TIP3     H2       HT       0.417000       1.00800           0
     27281 TIP3     3311     TIP3     OH2      OT      -0.834000       15.9994           0
     27282 TIP3     3311     TIP3     H1       HT       0.417000       1.00800           0
     27283 TIP3     3311     TIP3     H2       HT       0.417000       1.00800           0
     27284 TIP3     3312     TIP3     OH2      OT      -0.834000       15.9994           0
     27285 TIP3     3312     TIP3     H1       HT       0.417000       1.00800           0
     27286 TIP3     3312     TIP3     H2       HT       0.417000       1.00800           0
     27287 TIP3     3313     TIP3     OH2      OT      -0.834000       15.9994           0
     27288 TIP3     3313     TIP3     H1       HT       0.417000       1.00800           0
     27289 TIP3     3313     TIP3     H2       HT       0.417000       1.00800           0
     27290 TIP3     3314     TIP3     OH2      OT      -0.834000       15.9994           0
     27291 TIP3     3314     TIP3     H1       HT       0.417000       1.00800           0
     27292 TIP3     3314     TIP3     H2       HT       0.417000       1.00800           0
     27293 TIP3     3315     TIP3     OH2      OT      -0.834000       15.9994           0
     27294 TIP3     3315     TIP3     H1       HT       0.417000       1.00800           0
     27295 TIP3     3315     TIP3     H2       HT       0.417000       1.00800           0
     27296 TIP3     3316     TIP3     OH2      OT      -0.834000       15.9994           0
     27297 TIP3     3316     TIP3     H1       HT       0.417000       1.00800           0
     27298 TIP3     3316     TIP3     H2       HT       0.417000       1.00800           0
     27299 TIP3     3317     TIP3     OH2      OT      -0.834000       15.9994           0
     27300 TIP3     3317     TIP3     H1       HT       0.417000       1.00800           0
     27301 TIP3     3317     TIP3     H2       HT       0.417000       1.00800           0
     27302 TIP3     3318     TIP3     OH2      OT      -0.834000       15.9994           0
     27303 TIP3     3318     TIP3     H1       HT       0.417000       1.00800           0
     27304 TIP3     3318     TIP3     H2       HT       0.417000       1.00800           0
     27305 TIP3     3319     TIP3     OH2      OT      -0.834000       15.9994           0
     27306 TIP3     3319     TIP3     H1       HT       0.417000       1.00800           0
     27307 TIP3     3319     TIP3     H2       HT       0.417000       1.00800           0
     27308 TIP3     3320     TIP3     OH2      OT      -0.834000       15.9994           0
     27309 TIP3     3320     TIP3     H1       HT       0.417000       1.00800           0
     27310 TIP3     3320     TIP3     H2       HT       0.417000       1.00800           0
     27311 TIP3     3321     TIP3     OH2      OT      -0.834000       15.9994           0
     27312 TIP3     3321     TIP3     H1       HT       0.417000       1.00800           0
     27313 TIP3     3321     TIP3     H2       HT       0.417000       1.00800           0
     27314 TIP3     3322     TIP3     OH2      OT      -0.834000       15.9994           0
     27315 TIP3     3322     TIP3     H1       HT       0.417000       1.00800           0
     27316 TIP3     3322     TIP3     H2       HT       0.417000       1.00800           0
     27317 TIP3     3323     TIP3     OH2      OT      -0.834000       15.9994           0
     27318 TIP3     3323     TIP3     H1       HT       0.417000       1.00800           0
     27319 TIP3     3323     TIP3     H2       HT       0.417000       1.00800           0
     27320 TIP3     3324     TIP3     OH2      OT      -0.834000       15.9994           0
     27321 TIP3     3324     TIP3     H1       HT       0.417000       1.00800           0
     27322 TIP3     3324     TIP3     H2       HT       0.417000       1.00800           0
     27323 TIP3     3325     TIP3     OH2      OT      -0.834000       15.9994           0
     27324 TIP3     3325     TIP3     H1       HT       0.417000       1.00800           0
     27325 TIP3     3325     TIP3     H2       HT       0.417000       1.00800           0
     27326 TIP3     3326     TIP3     OH2      OT      -0.834000       15.9994           0
     27327 TIP3     3326     TIP3     H1       HT       0.417000       1.00800           0
     27328 TIP3     3326     TIP3     H2       HT       0.417000       1.00800           0
     27329 TIP3     3327     TIP3     OH2      OT      -0.834000       15.9994           0
     27330 TIP3     3327     TIP3     H1       HT       0.417000       1.00800           0
     27331 TIP3     3327     TIP3     H2       HT       0.417000       1.00800           0
     27332 TIP3     3328     TIP3     OH2      OT      -0.834000       15.9994           0
     27333 TIP3     3328     TIP3     H1       HT       0.417000       1.00800           0
     27334 TIP3     3328     TIP3     H2       HT       0.417000       1.00800           0
     27335 TIP3     3329     TIP3     OH2      OT      -0.834000       15.9994           0
     27336 TIP3     3329     TIP3     H1       HT       0.417000       1.00800           0
     27337 TIP3     3329     TIP3     H2       HT       0.417000       1.00800           0
     27338 TIP3     3330     TIP3     OH2      OT      -0.834000       15.9994           0
     27339 TIP3     3330     TIP3     H1       HT       0.417000       1.00800           0
     27340 TIP3     3330     TIP3     H2       HT       0.417000       1.00800           0
     27341 TIP3     3331     TIP3     OH2      OT      -0.834000       15.9994           0
     27342 TIP3     3331     TIP3     H1       HT       0.417000       1.00800           0
     27343 TIP3     3331     TIP3     H2       HT       0.417000       1.00800           0
     27344 TIP3     3332     TIP3     OH2      OT      -0.834000       15.9994           0
     27345 TIP3     3332     TIP3     H1       HT       0.417000       1.00800           0
     27346 TIP3     3332     TIP3     H2       HT       0.417000       1.00800           0
     27347 TIP3     3333     TIP3     OH2      OT      -0.834000       15.9994           0
     27348 TIP3     3333     TIP3     H1       HT       0.417000       1.00800           0
     27349 TIP3     3333     TIP3     H2       HT       0.417000       1.00800           0
     27350 TIP3     3334     TIP3     OH2      OT      -0.834000       15.9994           0
     27351 TIP3     3334     TIP3     H1       HT       0.417000       1.00800           0
     27352 TIP3     3334     TIP3     H2       HT       0.417000       1.00800           0
     27353 TIP3     3335     TIP3     OH2      OT      -0.834000       15.9994           0
     27354 TIP3     3335     TIP3     H1       HT       0.417000       1.00800           0
     27355 TIP3     3335     TIP3     H2       HT       0.417000       1.00800           0
     27356 TIP3     3336     TIP3     OH2      OT      -0.834000       15.9994           0
     27357 TIP3     3336     TIP3     H1       HT       0.417000       1.00800           0
     27358 TIP3     3336     TIP3     H2       HT       0.417000       1.00800           0
     27359 TIP3     3337     TIP3     OH2      OT      -0.834000       15.9994           0
     27360 TIP3     3337     TIP3     H1       HT       0.417000       1.00800           0
     27361 TIP3     3337     TIP3     H2       HT       0.417000       1.00800           0
     27362 TIP3     3338     TIP3     OH2      OT      -0.834000       15.9994           0
     27363 TIP3     3338     TIP3     H1       HT       0.417000       1.00800           0
     27364 TIP3     3338     TIP3     H2       HT       0.417000       1.00800           0
     27365 TIP3     3339     TIP3     OH2      OT      -0.834000       15.9994           0
     27366 TIP3     3339     TIP3     H1       HT       0.417000       1.00800           0
     27367 TIP3     3339     TIP3     H2       HT       0.417000       1.00800           0
     27368 TIP3     3340     TIP3     OH2      OT      -0.834000       15.9994           0
     27369 TIP3     3340     TIP3     H1       HT       0.417000       1.00800           0
     27370 TIP3     3340     TIP3     H2       HT       0.417000       1.00800           0
     27371 TIP3     3341     TIP3     OH2      OT      -0.834000       15.9994           0
     27372 TIP3     3341     TIP3     H1       HT       0.417000       1.00800           0
     27373 TIP3     3341     TIP3     H2       HT       0.417000       1.00800           0
     27374 TIP3     3342     TIP3     OH2      OT      -0.834000       15.9994           0
     27375 TIP3     3342     TIP3     H1       HT       0.417000       1.00800           0
     27376 TIP3     3342     TIP3     H2       HT       0.417000       1.00800           0
     27377 TIP3     3343     TIP3     OH2      OT      -0.834000       15.9994           0
     27378 TIP3     3343     TIP3     H1       HT       0.417000       1.00800           0
     27379 TIP3     3343     TIP3     H2       HT       0.417000       1.00800           0
     27380 TIP3     3344     TIP3     OH2      OT      -0.834000       15.9994           0
     27381 TIP3     3344     TIP3     H1       HT       0.417000       1.00800           0
     27382 TIP3     3344     TIP3     H2       HT       0.417000       1.00800           0
     27383 TIP3     3345     TIP3     OH2      OT      -0.834000       15.9994           0
     27384 TIP3     3345     TIP3     H1       HT       0.417000       1.00800           0
     27385 TIP3     3345     TIP3     H2       HT       0.417000       1.00800           0
     27386 TIP3     3346     TIP3     OH2      OT      -0.834000       15.9994           0
     27387 TIP3     3346     TIP3     H1       HT       0.417000       1.00800           0
     27388 TIP3     3346     TIP3     H2       HT       0.417000       1.00800           0
     27389 TIP3     3347     TIP3     OH2      OT      -0.834000       15.9994           0
     27390 TIP3     3347     TIP3     H1       HT       0.417000       1.00800           0
     27391 TIP3     3347     TIP3     H2       HT       0.417000       1.00800           0
     27392 TIP3     3348     TIP3     OH2      OT      -0.834000       15.9994           0
     27393 TIP3     3348     TIP3     H1       HT       0.417000       1.00800           0
     27394 TIP3     3348     TIP3     H2       HT       0.417000       1.00800           0
     27395 TIP3     3349     TIP3     OH2      OT      -0.834000       15.9994           0
     27396 TIP3     3349     TIP3     H1       HT       0.417000       1.00800           0
     27397 TIP3     3349     TIP3     H2       HT       0.417000       1.00800           0
     27398 TIP3     3350     TIP3     OH2      OT      -0.834000       15.9994           0
     27399 TIP3     3350     TIP3     H1       HT       0.417000       1.00800           0
     27400 TIP3     3350     TIP3     H2       HT       0.417000       1.00800           0
     27401 TIP3     3351     TIP3     OH2      OT      -0.834000       15.9994           0
     27402 TIP3     3351     TIP3     H1       HT       0.417000       1.00800           0
     27403 TIP3     3351     TIP3     H2       HT       0.417000       1.00800           0
     27404 TIP3     3352     TIP3     OH2      OT      -0.834000       15.9994           0
     27405 TIP3     3352     TIP3     H1       HT       0.417000       1.00800           0
     27406 TIP3     3352     TIP3     H2       HT       0.417000       1.00800           0
     27407 TIP3     3353     TIP3     OH2      OT      -0.834000       15.9994           0
     27408 TIP3     3353     TIP3     H1       HT       0.417000       1.00800           0
     27409 TIP3     3353     TIP3     H2       HT       0.417000       1.00800           0
     27410 TIP3     3354     TIP3     OH2      OT      -0.834000       15.9994           0
     27411 TIP3     3354     TIP3     H1       HT       0.417000       1.00800           0
     27412 TIP3     3354     TIP3     H2       HT       0.417000       1.00800           0
     27413 TIP3     3355     TIP3     OH2      OT      -0.834000       15.9994           0
     27414 TIP3     3355     TIP3     H1       HT       0.417000       1.00800           0
     27415 TIP3     3355     TIP3     H2       HT       0.417000       1.00800           0
     27416 TIP3     3356     TIP3     OH2      OT      -0.834000       15.9994           0
     27417 TIP3     3356     TIP3     H1       HT       0.417000       1.00800           0
     27418 TIP3     3356     TIP3     H2       HT       0.417000       1.00800           0
     27419 TIP3     3357     TIP3     OH2      OT      -0.834000       15.9994           0
     27420 TIP3     3357     TIP3     H1       HT       0.417000       1.00800           0
     27421 TIP3     3357     TIP3     H2       HT       0.417000       1.00800           0
     27422 TIP3     3358     TIP3     OH2      OT      -0.834000       15.9994           0
     27423 TIP3     3358     TIP3     H1       HT       0.417000       1.00800           0
     27424 TIP3     3358     TIP3     H2       HT       0.417000       1.00800           0
     27425 TIP3     3359     TIP3     OH2      OT      -0.834000       15.9994           0
     27426 TIP3     3359     TIP3     H1       HT       0.417000       1.00800           0
     27427 TIP3     3359     TIP3     H2       HT       0.417000       1.00800           0
     27428 TIP3     3360     TIP3     OH2      OT      -0.834000       15.9994           0
     27429 TIP3     3360     TIP3     H1       HT       0.417000       1.00800           0
     27430 TIP3     3360     TIP3     H2       HT       0.417000       1.00800           0
     27431 TIP3     3361     TIP3     OH2      OT      -0.834000       15.9994           0
     27432 TIP3     3361     TIP3     H1       HT       0.417000       1.00800           0
     27433 TIP3     3361     TIP3     H2       HT       0.417000       1.00800           0
     27434 TIP3     3362     TIP3     OH2      OT      -0.834000       15.9994           0
     27435 TIP3     3362     TIP3     H1       HT       0.417000       1.00800           0
     27436 TIP3     3362     TIP3     H2       HT       0.417000       1.00800           0
     27437 TIP3     3363     TIP3     OH2      OT      -0.834000       15.9994           0
     27438 TIP3     3363     TIP3     H1       HT       0.417000       1.00800           0
     27439 TIP3     3363     TIP3     H2       HT       0.417000       1.00800           0
     27440 TIP3     3364     TIP3     OH2      OT      -0.834000       15.9994           0
     27441 TIP3     3364     TIP3     H1       HT       0.417000       1.00800           0
     27442 TIP3     3364     TIP3     H2       HT       0.417000       1.00800           0
     27443 TIP3     3365     TIP3     OH2      OT      -0.834000       15.9994           0
     27444 TIP3     3365     TIP3     H1       HT       0.417000       1.00800           0
     27445 TIP3     3365     TIP3     H2       HT       0.417000       1.00800           0
     27446 TIP3     3366     TIP3     OH2      OT      -0.834000       15.9994           0
     27447 TIP3     3366     TIP3     H1       HT       0.417000       1.00800           0
     27448 TIP3     3366     TIP3     H2       HT       0.417000       1.00800           0
     27449 TIP3     3367     TIP3     OH2      OT      -0.834000       15.9994           0
     27450 TIP3     3367     TIP3     H1       HT       0.417000       1.00800           0
     27451 TIP3     3367     TIP3     H2       HT       0.417000       1.00800           0
     27452 TIP3     3368     TIP3     OH2      OT      -0.834000       15.9994           0
     27453 TIP3     3368     TIP3     H1       HT       0.417000       1.00800           0
     27454 TIP3     3368     TIP3     H2       HT       0.417000       1.00800           0
     27455 TIP3     3369     TIP3     OH2      OT      -0.834000       15.9994           0
     27456 TIP3     3369     TIP3     H1       HT       0.417000       1.00800           0
     27457 TIP3     3369     TIP3     H2       HT       0.417000       1.00800           0
     27458 TIP3     3370     TIP3     OH2      OT      -0.834000       15.9994           0
     27459 TIP3     3370     TIP3     H1       HT       0.417000       1.00800           0
     27460 TIP3     3370     TIP3     H2       HT       0.417000       1.00800           0
     27461 TIP3     3371     TIP3     OH2      OT      -0.834000       15.9994           0
     27462 TIP3     3371     TIP3     H1       HT       0.417000       1.00800           0
     27463 TIP3     3371     TIP3     H2       HT       0.417000       1.00800           0
     27464 TIP3     3372     TIP3     OH2      OT      -0.834000       15.9994           0
     27465 TIP3     3372     TIP3     H1       HT       0.417000       1.00800           0
     27466 TIP3     3372     TIP3     H2       HT       0.417000       1.00800           0
     27467 TIP3     3373     TIP3     OH2      OT      -0.834000       15.9994           0
     27468 TIP3     3373     TIP3     H1       HT       0.417000       1.00800           0
     27469 TIP3     3373     TIP3     H2       HT       0.417000       1.00800           0
     27470 TIP3     3374     TIP3     OH2      OT      -0.834000       15.9994           0
     27471 TIP3     3374     TIP3     H1       HT       0.417000       1.00800           0
     27472 TIP3     3374     TIP3     H2       HT       0.417000       1.00800           0
     27473 TIP3     3375     TIP3     OH2      OT      -0.834000       15.9994           0
     27474 TIP3     3375     TIP3     H1       HT       0.417000       1.00800           0
     27475 TIP3     3375     TIP3     H2       HT       0.417000       1.00800           0
     27476 TIP3     3376     TIP3     OH2      OT      -0.834000       15.9994           0
     27477 TIP3     3376     TIP3     H1       HT       0.417000       1.00800           0
     27478 TIP3     3376     TIP3     H2       HT       0.417000       1.00800           0
     27479 TIP3     3377     TIP3     OH2      OT      -0.834000       15.9994           0
     27480 TIP3     3377     TIP3     H1       HT       0.417000       1.00800           0
     27481 TIP3     3377     TIP3     H2       HT       0.417000       1.00800           0
     27482 TIP3     3378     TIP3     OH2      OT      -0.834000       15.9994           0
     27483 TIP3     3378     TIP3     H1       HT       0.417000       1.00800           0
     27484 TIP3     3378     TIP3     H2       HT       0.417000       1.00800           0
     27485 TIP3     3379     TIP3     OH2      OT      -0.834000       15.9994           0
     27486 TIP3     3379     TIP3     H1       HT       0.417000       1.00800           0
     27487 TIP3     3379     TIP3     H2       HT       0.417000       1.00800           0
     27488 TIP3     3380     TIP3     OH2      OT      -0.834000       15.9994           0
     27489 TIP3     3380     TIP3     H1       HT       0.417000       1.00800           0
     27490 TIP3     3380     TIP3     H2       HT       0.417000       1.00800           0
     27491 TIP3     3381     TIP3     OH2      OT      -0.834000       15.9994           0
     27492 TIP3     3381     TIP3     H1       HT       0.417000       1.00800           0
     27493 TIP3     3381     TIP3     H2       HT       0.417000       1.00800           0
     27494 TIP3     3382     TIP3     OH2      OT      -0.834000       15.9994           0
     27495 TIP3     3382     TIP3     H1       HT       0.417000       1.00800           0
     27496 TIP3     3382     TIP3     H2       HT       0.417000       1.00800           0
     27497 TIP3     3383     TIP3     OH2      OT      -0.834000       15.9994           0
     27498 TIP3     3383     TIP3     H1       HT       0.417000       1.00800           0
     27499 TIP3     3383     TIP3     H2       HT       0.417000       1.00800           0
     27500 TIP3     3384     TIP3     OH2      OT      -0.834000       15.9994           0
     27501 TIP3     3384     TIP3     H1       HT       0.417000       1.00800           0
     27502 TIP3     3384     TIP3     H2       HT       0.417000       1.00800           0
     27503 TIP3     3385     TIP3     OH2      OT      -0.834000       15.9994           0
     27504 TIP3     3385     TIP3     H1       HT       0.417000       1.00800           0
     27505 TIP3     3385     TIP3     H2       HT       0.417000       1.00800           0
     27506 TIP3     3386     TIP3     OH2      OT      -0.834000       15.9994           0
     27507 TIP3     3386     TIP3     H1       HT       0.417000       1.00800           0
     27508 TIP3     3386     TIP3     H2       HT       0.417000       1.00800           0
     27509 TIP3     3387     TIP3     OH2      OT      -0.834000       15.9994           0
     27510 TIP3     3387     TIP3     H1       HT       0.417000       1.00800           0
     27511 TIP3     3387     TIP3     H2       HT       0.417000       1.00800           0
     27512 TIP3     3388     TIP3     OH2      OT      -0.834000       15.9994           0
     27513 TIP3     3388     TIP3     H1       HT       0.417000       1.00800           0
     27514 TIP3     3388     TIP3     H2       HT       0.417000       1.00800           0
     27515 TIP3     3389     TIP3     OH2      OT      -0.834000       15.9994           0
     27516 TIP3     3389     TIP3     H1       HT       0.417000       1.00800           0
     27517 TIP3     3389     TIP3     H2       HT       0.417000       1.00800           0
     27518 TIP3     3390     TIP3     OH2      OT      -0.834000       15.9994           0
     27519 TIP3     3390     TIP3     H1       HT       0.417000       1.00800           0
     27520 TIP3     3390     TIP3     H2       HT       0.417000       1.00800           0
     27521 TIP3     3391     TIP3     OH2      OT      -0.834000       15.9994           0
     27522 TIP3     3391     TIP3     H1       HT       0.417000       1.00800           0
     27523 TIP3     3391     TIP3     H2       HT       0.417000       1.00800           0
     27524 TIP3     3392     TIP3     OH2      OT      -0.834000       15.9994           0
     27525 TIP3     3392     TIP3     H1       HT       0.417000       1.00800           0
     27526 TIP3     3392     TIP3     H2       HT       0.417000       1.00800           0
     27527 TIP3     3393     TIP3     OH2      OT      -0.834000       15.9994           0
     27528 TIP3     3393     TIP3     H1       HT       0.417000       1.00800           0
     27529 TIP3     3393     TIP3     H2       HT       0.417000       1.00800           0
     27530 TIP3     3394     TIP3     OH2      OT      -0.834000       15.9994           0
     27531 TIP3     3394     TIP3     H1       HT       0.417000       1.00800           0
     27532 TIP3     3394     TIP3     H2       HT       0.417000       1.00800           0
     27533 TIP3     3395     TIP3     OH2      OT      -0.834000       15.9994           0
     27534 TIP3     3395     TIP3     H1       HT       0.417000       1.00800           0
     27535 TIP3     3395     TIP3     H2       HT       0.417000       1.00800           0
     27536 TIP3     3396     TIP3     OH2      OT      -0.834000       15.9994           0
     27537 TIP3     3396     TIP3     H1       HT       0.417000       1.00800           0
     27538 TIP3     3396     TIP3     H2       HT       0.417000       1.00800           0
     27539 TIP3     3397     TIP3     OH2      OT      -0.834000       15.9994           0
     27540 TIP3     3397     TIP3     H1       HT       0.417000       1.00800           0
     27541 TIP3     3397     TIP3     H2       HT       0.417000       1.00800           0
     27542 TIP3     3398     TIP3     OH2      OT      -0.834000       15.9994           0
     27543 TIP3     3398     TIP3     H1       HT       0.417000       1.00800           0
     27544 TIP3     3398     TIP3     H2       HT       0.417000       1.00800           0
     27545 TIP3     3399     TIP3     OH2      OT      -0.834000       15.9994           0
     27546 TIP3     3399     TIP3     H1       HT       0.417000       1.00800           0
     27547 TIP3     3399     TIP3     H2       HT       0.417000       1.00800           0
     27548 TIP3     3400     TIP3     OH2      OT      -0.834000       15.9994           0
     27549 TIP3     3400     TIP3     H1       HT       0.417000       1.00800           0
     27550 TIP3     3400     TIP3     H2       HT       0.417000       1.00800           0
     27551 TIP3     3401     TIP3     OH2      OT      -0.834000       15.9994           0
     27552 TIP3     3401     TIP3     H1       HT       0.417000       1.00800           0
     27553 TIP3     3401     TIP3     H2       HT       0.417000       1.00800           0
     27554 TIP3     3402     TIP3     OH2      OT      -0.834000       15.9994           0
     27555 TIP3     3402     TIP3     H1       HT       0.417000       1.00800           0
     27556 TIP3     3402     TIP3     H2       HT       0.417000       1.00800           0
     27557 TIP3     3403     TIP3     OH2      OT      -0.834000       15.9994           0
     27558 TIP3     3403     TIP3     H1       HT       0.417000       1.00800           0
     27559 TIP3     3403     TIP3     H2       HT       0.417000       1.00800           0
     27560 TIP3     3404     TIP3     OH2      OT      -0.834000       15.9994           0
     27561 TIP3     3404     TIP3     H1       HT       0.417000       1.00800           0
     27562 TIP3     3404     TIP3     H2       HT       0.417000       1.00800           0
     27563 TIP3     3405     TIP3     OH2      OT      -0.834000       15.9994           0
     27564 TIP3     3405     TIP3     H1       HT       0.417000       1.00800           0
     27565 TIP3     3405     TIP3     H2       HT       0.417000       1.00800           0
     27566 TIP3     3406     TIP3     OH2      OT      -0.834000       15.9994           0
     27567 TIP3     3406     TIP3     H1       HT       0.417000       1.00800           0
     27568 TIP3     3406     TIP3     H2       HT       0.417000       1.00800           0
     27569 TIP3     3407     TIP3     OH2      OT      -0.834000       15.9994           0
     27570 TIP3     3407     TIP3     H1       HT       0.417000       1.00800           0
     27571 TIP3     3407     TIP3     H2       HT       0.417000       1.00800           0
     27572 TIP3     3408     TIP3     OH2      OT      -0.834000       15.9994           0
     27573 TIP3     3408     TIP3     H1       HT       0.417000       1.00800           0
     27574 TIP3     3408     TIP3     H2       HT       0.417000       1.00800           0
     27575 TIP3     3409     TIP3     OH2      OT      -0.834000       15.9994           0
     27576 TIP3     3409     TIP3     H1       HT       0.417000       1.00800           0
     27577 TIP3     3409     TIP3     H2       HT       0.417000       1.00800           0
     27578 TIP3     3410     TIP3     OH2      OT      -0.834000       15.9994           0
     27579 TIP3     3410     TIP3     H1       HT       0.417000       1.00800           0
     27580 TIP3     3410     TIP3     H2       HT       0.417000       1.00800           0
     27581 TIP3     3411     TIP3     OH2      OT      -0.834000       15.9994           0
     27582 TIP3     3411     TIP3     H1       HT       0.417000       1.00800           0
     27583 TIP3     3411     TIP3     H2       HT       0.417000       1.00800           0
     27584 TIP3     3412     TIP3     OH2      OT      -0.834000       15.9994           0
     27585 TIP3     3412     TIP3     H1       HT       0.417000       1.00800           0
     27586 TIP3     3412     TIP3     H2       HT       0.417000       1.00800           0
     27587 TIP3     3413     TIP3     OH2      OT      -0.834000       15.9994           0
     27588 TIP3     3413     TIP3     H1       HT       0.417000       1.00800           0
     27589 TIP3     3413     TIP3     H2       HT       0.417000       1.00800           0
     27590 TIP3     3414     TIP3     OH2      OT      -0.834000       15.9994           0
     27591 TIP3     3414     TIP3     H1       HT       0.417000       1.00800           0
     27592 TIP3     3414     TIP3     H2       HT       0.417000       1.00800           0
     27593 TIP3     3415     TIP3     OH2      OT      -0.834000       15.9994           0
     27594 TIP3     3415     TIP3     H1       HT       0.417000       1.00800           0
     27595 TIP3     3415     TIP3     H2       HT       0.417000       1.00800           0
     27596 TIP3     3416     TIP3     OH2      OT      -0.834000       15.9994           0
     27597 TIP3     3416     TIP3     H1       HT       0.417000       1.00800           0
     27598 TIP3     3416     TIP3     H2       HT       0.417000       1.00800           0
     27599 TIP3     3417     TIP3     OH2      OT      -0.834000       15.9994           0
     27600 TIP3     3417     TIP3     H1       HT       0.417000       1.00800           0
     27601 TIP3     3417     TIP3     H2       HT       0.417000       1.00800           0
     27602 TIP3     3418     TIP3     OH2      OT      -0.834000       15.9994           0
     27603 TIP3     3418     TIP3     H1       HT       0.417000       1.00800           0
     27604 TIP3     3418     TIP3     H2       HT       0.417000       1.00800           0
     27605 TIP3     3419     TIP3     OH2      OT      -0.834000       15.9994           0
     27606 TIP3     3419     TIP3     H1       HT       0.417000       1.00800           0
     27607 TIP3     3419     TIP3     H2       HT       0.417000       1.00800           0
     27608 TIP3     3420     TIP3     OH2      OT      -0.834000       15.9994           0
     27609 TIP3     3420     TIP3     H1       HT       0.417000       1.00800           0
     27610 TIP3     3420     TIP3     H2       HT       0.417000       1.00800           0
     27611 TIP3     3421     TIP3     OH2      OT      -0.834000       15.9994           0
     27612 TIP3     3421     TIP3     H1       HT       0.417000       1.00800           0
     27613 TIP3     3421     TIP3     H2       HT       0.417000       1.00800           0
     27614 TIP3     3422     TIP3     OH2      OT      -0.834000       15.9994           0
     27615 TIP3     3422     TIP3     H1       HT       0.417000       1.00800           0
     27616 TIP3     3422     TIP3     H2       HT       0.417000       1.00800           0
     27617 TIP3     3423     TIP3     OH2      OT      -0.834000       15.9994           0
     27618 TIP3     3423     TIP3     H1       HT       0.417000       1.00800           0
     27619 TIP3     3423     TIP3     H2       HT       0.417000       1.00800           0
     27620 TIP3     3424     TIP3     OH2      OT      -0.834000       15.9994           0
     27621 TIP3     3424     TIP3     H1       HT       0.417000       1.00800           0
     27622 TIP3     3424     TIP3     H2       HT       0.417000       1.00800           0
     27623 TIP3     3425     TIP3     OH2      OT      -0.834000       15.9994           0
     27624 TIP3     3425     TIP3     H1       HT       0.417000       1.00800           0
     27625 TIP3     3425     TIP3     H2       HT       0.417000       1.00800           0
     27626 TIP3     3426     TIP3     OH2      OT      -0.834000       15.9994           0
     27627 TIP3     3426     TIP3     H1       HT       0.417000       1.00800           0
     27628 TIP3     3426     TIP3     H2       HT       0.417000       1.00800           0
     27629 TIP3     3427     TIP3     OH2      OT      -0.834000       15.9994           0
     27630 TIP3     3427     TIP3     H1       HT       0.417000       1.00800           0
     27631 TIP3     3427     TIP3     H2       HT       0.417000       1.00800           0
     27632 TIP3     3428     TIP3     OH2      OT      -0.834000       15.9994           0
     27633 TIP3     3428     TIP3     H1       HT       0.417000       1.00800           0
     27634 TIP3     3428     TIP3     H2       HT       0.417000       1.00800           0
     27635 TIP3     3429     TIP3     OH2      OT      -0.834000       15.9994           0
     27636 TIP3     3429     TIP3     H1       HT       0.417000       1.00800           0
     27637 TIP3     3429     TIP3     H2       HT       0.417000       1.00800           0
     27638 TIP3     3430     TIP3     OH2      OT      -0.834000       15.9994           0
     27639 TIP3     3430     TIP3     H1       HT       0.417000       1.00800           0
     27640 TIP3     3430     TIP3     H2       HT       0.417000       1.00800           0
     27641 TIP3     3431     TIP3     OH2      OT      -0.834000       15.9994           0
     27642 TIP3     3431     TIP3     H1       HT       0.417000       1.00800           0
     27643 TIP3     3431     TIP3     H2       HT       0.417000       1.00800           0
     27644 TIP3     3432     TIP3     OH2      OT      -0.834000       15.9994           0
     27645 TIP3     3432     TIP3     H1       HT       0.417000       1.00800           0
     27646 TIP3     3432     TIP3     H2       HT       0.417000       1.00800           0
     27647 TIP3     3433     TIP3     OH2      OT      -0.834000       15.9994           0
     27648 TIP3     3433     TIP3     H1       HT       0.417000       1.00800           0
     27649 TIP3     3433     TIP3     H2       HT       0.417000       1.00800           0
     27650 TIP3     3434     TIP3     OH2      OT      -0.834000       15.9994           0
     27651 TIP3     3434     TIP3     H1       HT       0.417000       1.00800           0
     27652 TIP3     3434     TIP3     H2       HT       0.417000       1.00800           0
     27653 TIP3     3435     TIP3     OH2      OT      -0.834000       15.9994           0
     27654 TIP3     3435     TIP3     H1       HT       0.417000       1.00800           0
     27655 TIP3     3435     TIP3     H2       HT       0.417000       1.00800           0
     27656 TIP3     3436     TIP3     OH2      OT      -0.834000       15.9994           0
     27657 TIP3     3436     TIP3     H1       HT       0.417000       1.00800           0
     27658 TIP3     3436     TIP3     H2       HT       0.417000       1.00800           0
     27659 TIP3     3437     TIP3     OH2      OT      -0.834000       15.9994           0
     27660 TIP3     3437     TIP3     H1       HT       0.417000       1.00800           0
     27661 TIP3     3437     TIP3     H2       HT       0.417000       1.00800           0
     27662 TIP3     3438     TIP3     OH2      OT      -0.834000       15.9994           0
     27663 TIP3     3438     TIP3     H1       HT       0.417000       1.00800           0
     27664 TIP3     3438     TIP3     H2       HT       0.417000       1.00800           0
     27665 TIP3     3439     TIP3     OH2      OT      -0.834000       15.9994           0
     27666 TIP3     3439     TIP3     H1       HT       0.417000       1.00800           0
     27667 TIP3     3439     TIP3     H2       HT       0.417000       1.00800           0
     27668 TIP3     3440     TIP3     OH2      OT      -0.834000       15.9994           0
     27669 TIP3     3440     TIP3     H1       HT       0.417000       1.00800           0
     27670 TIP3     3440     TIP3     H2       HT       0.417000       1.00800           0
     27671 TIP3     3441     TIP3     OH2      OT      -0.834000       15.9994           0
     27672 TIP3     3441     TIP3     H1       HT       0.417000       1.00800           0
     27673 TIP3     3441     TIP3     H2       HT       0.417000       1.00800           0
     27674 TIP3     3442     TIP3     OH2      OT      -0.834000       15.9994           0
     27675 TIP3     3442     TIP3     H1       HT       0.417000       1.00800           0
     27676 TIP3     3442     TIP3     H2       HT       0.417000       1.00800           0
     27677 TIP3     3443     TIP3     OH2      OT      -0.834000       15.9994           0
     27678 TIP3     3443     TIP3     H1       HT       0.417000       1.00800           0
     27679 TIP3     3443     TIP3     H2       HT       0.417000       1.00800           0
     27680 TIP3     3444     TIP3     OH2      OT      -0.834000       15.9994           0
     27681 TIP3     3444     TIP3     H1       HT       0.417000       1.00800           0
     27682 TIP3     3444     TIP3     H2       HT       0.417000       1.00800           0
     27683 TIP3     3445     TIP3     OH2      OT      -0.834000       15.9994           0
     27684 TIP3     3445     TIP3     H1       HT       0.417000       1.00800           0
     27685 TIP3     3445     TIP3     H2       HT       0.417000       1.00800           0
     27686 TIP3     3446     TIP3     OH2      OT      -0.834000       15.9994           0
     27687 TIP3     3446     TIP3     H1       HT       0.417000       1.00800           0
     27688 TIP3     3446     TIP3     H2       HT       0.417000       1.00800           0
     27689 TIP3     3447     TIP3     OH2      OT      -0.834000       15.9994           0
     27690 TIP3     3447     TIP3     H1       HT       0.417000       1.00800           0
     27691 TIP3     3447     TIP3     H2       HT       0.417000       1.00800           0
     27692 TIP3     3448     TIP3     OH2      OT      -0.834000       15.9994           0
     27693 TIP3     3448     TIP3     H1       HT       0.417000       1.00800           0
     27694 TIP3     3448     TIP3     H2       HT       0.417000       1.00800           0
     27695 TIP3     3449     TIP3     OH2      OT      -0.834000       15.9994           0
     27696 TIP3     3449     TIP3     H1       HT       0.417000       1.00800           0
     27697 TIP3     3449     TIP3     H2       HT       0.417000       1.00800           0
     27698 TIP3     3450     TIP3     OH2      OT      -0.834000       15.9994           0
     27699 TIP3     3450     TIP3     H1       HT       0.417000       1.00800           0
     27700 TIP3     3450     TIP3     H2       HT       0.417000       1.00800           0
     27701 TIP3     3451     TIP3     OH2      OT      -0.834000       15.9994           0
     27702 TIP3     3451     TIP3     H1       HT       0.417000       1.00800           0
     27703 TIP3     3451     TIP3     H2       HT       0.417000       1.00800           0
     27704 TIP3     3452     TIP3     OH2      OT      -0.834000       15.9994           0
     27705 TIP3     3452     TIP3     H1       HT       0.417000       1.00800           0
     27706 TIP3     3452     TIP3     H2       HT       0.417000       1.00800           0
     27707 TIP3     3453     TIP3     OH2      OT      -0.834000       15.9994           0
     27708 TIP3     3453     TIP3     H1       HT       0.417000       1.00800           0
     27709 TIP3     3453     TIP3     H2       HT       0.417000       1.00800           0
     27710 TIP3     3454     TIP3     OH2      OT      -0.834000       15.9994           0
     27711 TIP3     3454     TIP3     H1       HT       0.417000       1.00800           0
     27712 TIP3     3454     TIP3     H2       HT       0.417000       1.00800           0
     27713 TIP3     3455     TIP3     OH2      OT      -0.834000       15.9994           0
     27714 TIP3     3455     TIP3     H1       HT       0.417000       1.00800           0
     27715 TIP3     3455     TIP3     H2       HT       0.417000       1.00800           0
     27716 TIP3     3456     TIP3     OH2      OT      -0.834000       15.9994           0
     27717 TIP3     3456     TIP3     H1       HT       0.417000       1.00800           0
     27718 TIP3     3456     TIP3     H2       HT       0.417000       1.00800           0
     27719 TIP3     3457     TIP3     OH2      OT      -0.834000       15.9994           0
     27720 TIP3     3457     TIP3     H1       HT       0.417000       1.00800           0
     27721 TIP3     3457     TIP3     H2       HT       0.417000       1.00800           0
     27722 TIP3     3458     TIP3     OH2      OT      -0.834000       15.9994           0
     27723 TIP3     3458     TIP3     H1       HT       0.417000       1.00800           0
     27724 TIP3     3458     TIP3     H2       HT       0.417000       1.00800           0
     27725 TIP3     3459     TIP3     OH2      OT      -0.834000       15.9994           0
     27726 TIP3     3459     TIP3     H1       HT       0.417000       1.00800           0
     27727 TIP3     3459     TIP3     H2       HT       0.417000       1.00800           0
     27728 TIP3     3460     TIP3     OH2      OT      -0.834000       15.9994           0
     27729 TIP3     3460     TIP3     H1       HT       0.417000       1.00800           0
     27730 TIP3     3460     TIP3     H2       HT       0.417000       1.00800           0
     27731 TIP3     3461     TIP3     OH2      OT      -0.834000       15.9994           0
     27732 TIP3     3461     TIP3     H1       HT       0.417000       1.00800           0
     27733 TIP3     3461     TIP3     H2       HT       0.417000       1.00800           0
     27734 TIP3     3462     TIP3     OH2      OT      -0.834000       15.9994           0
     27735 TIP3     3462     TIP3     H1       HT       0.417000       1.00800           0
     27736 TIP3     3462     TIP3     H2       HT       0.417000       1.00800           0
     27737 TIP3     3463     TIP3     OH2      OT      -0.834000       15.9994           0
     27738 TIP3     3463     TIP3     H1       HT       0.417000       1.00800           0
     27739 TIP3     3463     TIP3     H2       HT       0.417000       1.00800           0
     27740 TIP3     3464     TIP3     OH2      OT      -0.834000       15.9994           0
     27741 TIP3     3464     TIP3     H1       HT       0.417000       1.00800           0
     27742 TIP3     3464     TIP3     H2       HT       0.417000       1.00800           0
     27743 TIP3     3465     TIP3     OH2      OT      -0.834000       15.9994           0
     27744 TIP3     3465     TIP3     H1       HT       0.417000       1.00800           0
     27745 TIP3     3465     TIP3     H2       HT       0.417000       1.00800           0
     27746 TIP3     3466     TIP3     OH2      OT      -0.834000       15.9994           0
     27747 TIP3     3466     TIP3     H1       HT       0.417000       1.00800           0
     27748 TIP3     3466     TIP3     H2       HT       0.417000       1.00800           0
     27749 TIP3     3467     TIP3     OH2      OT      -0.834000       15.9994           0
     27750 TIP3     3467     TIP3     H1       HT       0.417000       1.00800           0
     27751 TIP3     3467     TIP3     H2       HT       0.417000       1.00800           0
     27752 TIP3     3468     TIP3     OH2      OT      -0.834000       15.9994           0
     27753 TIP3     3468     TIP3     H1       HT       0.417000       1.00800           0
     27754 TIP3     3468     TIP3     H2       HT       0.417000       1.00800           0
     27755 TIP3     3469     TIP3     OH2      OT      -0.834000       15.9994           0
     27756 TIP3     3469     TIP3     H1       HT       0.417000       1.00800           0
     27757 TIP3     3469     TIP3     H2       HT       0.417000       1.00800           0
     27758 TIP3     3470     TIP3     OH2      OT      -0.834000       15.9994           0
     27759 TIP3     3470     TIP3     H1       HT       0.417000       1.00800           0
     27760 TIP3     3470     TIP3     H2       HT       0.417000       1.00800           0
     27761 TIP3     3471     TIP3     OH2      OT      -0.834000       15.9994           0
     27762 TIP3     3471     TIP3     H1       HT       0.417000       1.00800           0
     27763 TIP3     3471     TIP3     H2       HT       0.417000       1.00800           0
     27764 TIP3     3472     TIP3     OH2      OT      -0.834000       15.9994           0
     27765 TIP3     3472     TIP3     H1       HT       0.417000       1.00800           0
     27766 TIP3     3472     TIP3     H2       HT       0.417000       1.00800           0
     27767 TIP3     3473     TIP3     OH2      OT      -0.834000       15.9994           0
     27768 TIP3     3473     TIP3     H1       HT       0.417000       1.00800           0
     27769 TIP3     3473     TIP3     H2       HT       0.417000       1.00800           0
     27770 TIP3     3474     TIP3     OH2      OT      -0.834000       15.9994           0
     27771 TIP3     3474     TIP3     H1       HT       0.417000       1.00800           0
     27772 TIP3     3474     TIP3     H2       HT       0.417000       1.00800           0
     27773 TIP3     3475     TIP3     OH2      OT      -0.834000       15.9994           0
     27774 TIP3     3475     TIP3     H1       HT       0.417000       1.00800           0
     27775 TIP3     3475     TIP3     H2       HT       0.417000       1.00800           0
     27776 TIP3     3476     TIP3     OH2      OT      -0.834000       15.9994           0
     27777 TIP3     3476     TIP3     H1       HT       0.417000       1.00800           0
     27778 TIP3     3476     TIP3     H2       HT       0.417000       1.00800           0
     27779 TIP3     3477     TIP3     OH2      OT      -0.834000       15.9994           0
     27780 TIP3     3477     TIP3     H1       HT       0.417000       1.00800           0
     27781 TIP3     3477     TIP3     H2       HT       0.417000       1.00800           0
     27782 TIP3     3478     TIP3     OH2      OT      -0.834000       15.9994           0
     27783 TIP3     3478     TIP3     H1       HT       0.417000       1.00800           0
     27784 TIP3     3478     TIP3     H2       HT       0.417000       1.00800           0
     27785 TIP3     3479     TIP3     OH2      OT      -0.834000       15.9994           0
     27786 TIP3     3479     TIP3     H1       HT       0.417000       1.00800           0
     27787 TIP3     3479     TIP3     H2       HT       0.417000       1.00800           0
     27788 TIP3     3480     TIP3     OH2      OT      -0.834000       15.9994           0
     27789 TIP3     3480     TIP3     H1       HT       0.417000       1.00800           0
     27790 TIP3     3480     TIP3     H2       HT       0.417000       1.00800           0
     27791 TIP3     3481     TIP3     OH2      OT      -0.834000       15.9994           0
     27792 TIP3     3481     TIP3     H1       HT       0.417000       1.00800           0
     27793 TIP3     3481     TIP3     H2       HT       0.417000       1.00800           0
     27794 TIP3     3482     TIP3     OH2      OT      -0.834000       15.9994           0
     27795 TIP3     3482     TIP3     H1       HT       0.417000       1.00800           0
     27796 TIP3     3482     TIP3     H2       HT       0.417000       1.00800           0
     27797 TIP3     3483     TIP3     OH2      OT      -0.834000       15.9994           0
     27798 TIP3     3483     TIP3     H1       HT       0.417000       1.00800           0
     27799 TIP3     3483     TIP3     H2       HT       0.417000       1.00800           0
     27800 TIP3     3484     TIP3     OH2      OT      -0.834000       15.9994           0
     27801 TIP3     3484     TIP3     H1       HT       0.417000       1.00800           0
     27802 TIP3     3484     TIP3     H2       HT       0.417000       1.00800           0
     27803 TIP3     3485     TIP3     OH2      OT      -0.834000       15.9994           0
     27804 TIP3     3485     TIP3     H1       HT       0.417000       1.00800           0
     27805 TIP3     3485     TIP3     H2       HT       0.417000       1.00800           0
     27806 TIP3     3486     TIP3     OH2      OT      -0.834000       15.9994           0
     27807 TIP3     3486     TIP3     H1       HT       0.417000       1.00800           0
     27808 TIP3     3486     TIP3     H2       HT       0.417000       1.00800           0
     27809 TIP3     3487     TIP3     OH2      OT      -0.834000       15.9994           0
     27810 TIP3     3487     TIP3     H1       HT       0.417000       1.00800           0
     27811 TIP3     3487     TIP3     H2       HT       0.417000       1.00800           0
     27812 TIP3     3488     TIP3     OH2      OT      -0.834000       15.9994           0
     27813 TIP3     3488     TIP3     H1       HT       0.417000       1.00800           0
     27814 TIP3     3488     TIP3     H2       HT       0.417000       1.00800           0
     27815 TIP3     3489     TIP3     OH2      OT      -0.834000       15.9994           0
     27816 TIP3     3489     TIP3     H1       HT       0.417000       1.00800           0
     27817 TIP3     3489     TIP3     H2       HT       0.417000       1.00800           0
     27818 TIP3     3490     TIP3     OH2      OT      -0.834000       15.9994           0
     27819 TIP3     3490     TIP3     H1       HT       0.417000       1.00800           0
     27820 TIP3     3490     TIP3     H2       HT       0.417000       1.00800           0
     27821 TIP3     3491     TIP3     OH2      OT      -0.834000       15.9994           0
     27822 TIP3     3491     TIP3     H1       HT       0.417000       1.00800           0
     27823 TIP3     3491     TIP3     H2       HT       0.417000       1.00800           0
     27824 TIP3     3492     TIP3     OH2      OT      -0.834000       15.9994           0
     27825 TIP3     3492     TIP3     H1       HT       0.417000       1.00800           0
     27826 TIP3     3492     TIP3     H2       HT       0.417000       1.00800           0
     27827 TIP3     3493     TIP3     OH2      OT      -0.834000       15.9994           0
     27828 TIP3     3493     TIP3     H1       HT       0.417000       1.00800           0
     27829 TIP3     3493     TIP3     H2       HT       0.417000       1.00800           0
     27830 TIP3     3494     TIP3     OH2      OT      -0.834000       15.9994           0
     27831 TIP3     3494     TIP3     H1       HT       0.417000       1.00800           0
     27832 TIP3     3494     TIP3     H2       HT       0.417000       1.00800           0
     27833 TIP3     3495     TIP3     OH2      OT      -0.834000       15.9994           0
     27834 TIP3     3495     TIP3     H1       HT       0.417000       1.00800           0
     27835 TIP3     3495     TIP3     H2       HT       0.417000       1.00800           0
     27836 TIP3     3496     TIP3     OH2      OT      -0.834000       15.9994           0
     27837 TIP3     3496     TIP3     H1       HT       0.417000       1.00800           0
     27838 TIP3     3496     TIP3     H2       HT       0.417000       1.00800           0
     27839 TIP3     3497     TIP3     OH2      OT      -0.834000       15.9994           0
     27840 TIP3     3497     TIP3     H1       HT       0.417000       1.00800           0
     27841 TIP3     3497     TIP3     H2       HT       0.417000       1.00800           0
     27842 TIP3     3498     TIP3     OH2      OT      -0.834000       15.9994           0
     27843 TIP3     3498     TIP3     H1       HT       0.417000       1.00800           0
     27844 TIP3     3498     TIP3     H2       HT       0.417000       1.00800           0
     27845 TIP3     3499     TIP3     OH2      OT      -0.834000       15.9994           0
     27846 TIP3     3499     TIP3     H1       HT       0.417000       1.00800           0
     27847 TIP3     3499     TIP3     H2       HT       0.417000       1.00800           0
     27848 TIP3     3500     TIP3     OH2      OT      -0.834000       15.9994           0
     27849 TIP3     3500     TIP3     H1       HT       0.417000       1.00800           0
     27850 TIP3     3500     TIP3     H2       HT       0.417000       1.00800           0
     27851 TIP3     3501     TIP3     OH2      OT      -0.834000       15.9994           0
     27852 TIP3     3501     TIP3     H1       HT       0.417000       1.00800           0
     27853 TIP3     3501     TIP3     H2       HT       0.417000       1.00800           0
     27854 TIP3     3502     TIP3     OH2      OT      -0.834000       15.9994           0
     27855 TIP3     3502     TIP3     H1       HT       0.417000       1.00800           0
     27856 TIP3     3502     TIP3     H2       HT       0.417000       1.00800           0
     27857 TIP3     3503     TIP3     OH2      OT      -0.834000       15.9994           0
     27858 TIP3     3503     TIP3     H1       HT       0.417000       1.00800           0
     27859 TIP3     3503     TIP3     H2       HT       0.417000       1.00800           0
     27860 TIP3     3504     TIP3     OH2      OT      -0.834000       15.9994           0
     27861 TIP3     3504     TIP3     H1       HT       0.417000       1.00800           0
     27862 TIP3     3504     TIP3     H2       HT       0.417000       1.00800           0
     27863 TIP3     3505     TIP3     OH2      OT      -0.834000       15.9994           0
     27864 TIP3     3505     TIP3     H1       HT       0.417000       1.00800           0
     27865 TIP3     3505     TIP3     H2       HT       0.417000       1.00800           0
     27866 TIP3     3506     TIP3     OH2      OT      -0.834000       15.9994           0
     27867 TIP3     3506     TIP3     H1       HT       0.417000       1.00800           0
     27868 TIP3     3506     TIP3     H2       HT       0.417000       1.00800           0
     27869 TIP3     3507     TIP3     OH2      OT      -0.834000       15.9994           0
     27870 TIP3     3507     TIP3     H1       HT       0.417000       1.00800           0
     27871 TIP3     3507     TIP3     H2       HT       0.417000       1.00800           0
     27872 TIP3     3508     TIP3     OH2      OT      -0.834000       15.9994           0
     27873 TIP3     3508     TIP3     H1       HT       0.417000       1.00800           0
     27874 TIP3     3508     TIP3     H2       HT       0.417000       1.00800           0
     27875 TIP3     3509     TIP3     OH2      OT      -0.834000       15.9994           0
     27876 TIP3     3509     TIP3     H1       HT       0.417000       1.00800           0
     27877 TIP3     3509     TIP3     H2       HT       0.417000       1.00800           0
     27878 TIP3     3510     TIP3     OH2      OT      -0.834000       15.9994           0
     27879 TIP3     3510     TIP3     H1       HT       0.417000       1.00800           0
     27880 TIP3     3510     TIP3     H2       HT       0.417000       1.00800           0
     27881 TIP3     3511     TIP3     OH2      OT      -0.834000       15.9994           0
     27882 TIP3     3511     TIP3     H1       HT       0.417000       1.00800           0
     27883 TIP3     3511     TIP3     H2       HT       0.417000       1.00800           0
     27884 TIP3     3512     TIP3     OH2      OT      -0.834000       15.9994           0
     27885 TIP3     3512     TIP3     H1       HT       0.417000       1.00800           0
     27886 TIP3     3512     TIP3     H2       HT       0.417000       1.00800           0
     27887 TIP3     3513     TIP3     OH2      OT      -0.834000       15.9994           0
     27888 TIP3     3513     TIP3     H1       HT       0.417000       1.00800           0
     27889 TIP3     3513     TIP3     H2       HT       0.417000       1.00800           0
     27890 TIP3     3514     TIP3     OH2      OT      -0.834000       15.9994           0
     27891 TIP3     3514     TIP3     H1       HT       0.417000       1.00800           0
     27892 TIP3     3514     TIP3     H2       HT       0.417000       1.00800           0
     27893 TIP3     3515     TIP3     OH2      OT      -0.834000       15.9994           0
     27894 TIP3     3515     TIP3     H1       HT       0.417000       1.00800           0
     27895 TIP3     3515     TIP3     H2       HT       0.417000       1.00800           0
     27896 TIP3     3516     TIP3     OH2      OT      -0.834000       15.9994           0
     27897 TIP3     3516     TIP3     H1       HT       0.417000       1.00800           0
     27898 TIP3     3516     TIP3     H2       HT       0.417000       1.00800           0
     27899 TIP3     3517     TIP3     OH2      OT      -0.834000       15.9994           0
     27900 TIP3     3517     TIP3     H1       HT       0.417000       1.00800           0
     27901 TIP3     3517     TIP3     H2       HT       0.417000       1.00800           0
     27902 TIP3     3518     TIP3     OH2      OT      -0.834000       15.9994           0
     27903 TIP3     3518     TIP3     H1       HT       0.417000       1.00800           0
     27904 TIP3     3518     TIP3     H2       HT       0.417000       1.00800           0
     27905 TIP3     3519     TIP3     OH2      OT      -0.834000       15.9994           0
     27906 TIP3     3519     TIP3     H1       HT       0.417000       1.00800           0
     27907 TIP3     3519     TIP3     H2       HT       0.417000       1.00800           0
     27908 TIP3     3520     TIP3     OH2      OT      -0.834000       15.9994           0
     27909 TIP3     3520     TIP3     H1       HT       0.417000       1.00800           0
     27910 TIP3     3520     TIP3     H2       HT       0.417000       1.00800           0
     27911 TIP3     3521     TIP3     OH2      OT      -0.834000       15.9994           0
     27912 TIP3     3521     TIP3     H1       HT       0.417000       1.00800           0
     27913 TIP3     3521     TIP3     H2       HT       0.417000       1.00800           0
     27914 TIP3     3522     TIP3     OH2      OT      -0.834000       15.9994           0
     27915 TIP3     3522     TIP3     H1       HT       0.417000       1.00800           0
     27916 TIP3     3522     TIP3     H2       HT       0.417000       1.00800           0
     27917 TIP3     3523     TIP3     OH2      OT      -0.834000       15.9994           0
     27918 TIP3     3523     TIP3     H1       HT       0.417000       1.00800           0
     27919 TIP3     3523     TIP3     H2       HT       0.417000       1.00800           0
     27920 TIP3     3524     TIP3     OH2      OT      -0.834000       15.9994           0
     27921 TIP3     3524     TIP3     H1       HT       0.417000       1.00800           0
     27922 TIP3     3524     TIP3     H2       HT       0.417000       1.00800           0
     27923 TIP3     3525     TIP3     OH2      OT      -0.834000       15.9994           0
     27924 TIP3     3525     TIP3     H1       HT       0.417000       1.00800           0
     27925 TIP3     3525     TIP3     H2       HT       0.417000       1.00800           0
     27926 TIP3     3526     TIP3     OH2      OT      -0.834000       15.9994           0
     27927 TIP3     3526     TIP3     H1       HT       0.417000       1.00800           0
     27928 TIP3     3526     TIP3     H2       HT       0.417000       1.00800           0
     27929 TIP3     3527     TIP3     OH2      OT      -0.834000       15.9994           0
     27930 TIP3     3527     TIP3     H1       HT       0.417000       1.00800           0
     27931 TIP3     3527     TIP3     H2       HT       0.417000       1.00800           0
     27932 TIP3     3528     TIP3     OH2      OT      -0.834000       15.9994           0
     27933 TIP3     3528     TIP3     H1       HT       0.417000       1.00800           0
     27934 TIP3     3528     TIP3     H2       HT       0.417000       1.00800           0
     27935 TIP3     3529     TIP3     OH2      OT      -0.834000       15.9994           0
     27936 TIP3     3529     TIP3     H1       HT       0.417000       1.00800           0
     27937 TIP3     3529     TIP3     H2       HT       0.417000       1.00800           0
     27938 TIP3     3530     TIP3     OH2      OT      -0.834000       15.9994           0
     27939 TIP3     3530     TIP3     H1       HT       0.417000       1.00800           0
     27940 TIP3     3530     TIP3     H2       HT       0.417000       1.00800           0
     27941 TIP3     3531     TIP3     OH2      OT      -0.834000       15.9994           0
     27942 TIP3     3531     TIP3     H1       HT       0.417000       1.00800           0
     27943 TIP3     3531     TIP3     H2       HT       0.417000       1.00800           0
     27944 TIP3     3532     TIP3     OH2      OT      -0.834000       15.9994           0
     27945 TIP3     3532     TIP3     H1       HT       0.417000       1.00800           0
     27946 TIP3     3532     TIP3     H2       HT       0.417000       1.00800           0
     27947 TIP3     3533     TIP3     OH2      OT      -0.834000       15.9994           0
     27948 TIP3     3533     TIP3     H1       HT       0.417000       1.00800           0
     27949 TIP3     3533     TIP3     H2       HT       0.417000       1.00800           0
     27950 TIP3     3534     TIP3     OH2      OT      -0.834000       15.9994           0
     27951 TIP3     3534     TIP3     H1       HT       0.417000       1.00800           0
     27952 TIP3     3534     TIP3     H2       HT       0.417000       1.00800           0
     27953 TIP3     3535     TIP3     OH2      OT      -0.834000       15.9994           0
     27954 TIP3     3535     TIP3     H1       HT       0.417000       1.00800           0
     27955 TIP3     3535     TIP3     H2       HT       0.417000       1.00800           0
     27956 TIP3     3536     TIP3     OH2      OT      -0.834000       15.9994           0
     27957 TIP3     3536     TIP3     H1       HT       0.417000       1.00800           0
     27958 TIP3     3536     TIP3     H2       HT       0.417000       1.00800           0
     27959 TIP3     3537     TIP3     OH2      OT      -0.834000       15.9994           0
     27960 TIP3     3537     TIP3     H1       HT       0.417000       1.00800           0
     27961 TIP3     3537     TIP3     H2       HT       0.417000       1.00800           0
     27962 TIP3     3538     TIP3     OH2      OT      -0.834000       15.9994           0
     27963 TIP3     3538     TIP3     H1       HT       0.417000       1.00800           0
     27964 TIP3     3538     TIP3     H2       HT       0.417000       1.00800           0
     27965 TIP3     3539     TIP3     OH2      OT      -0.834000       15.9994           0
     27966 TIP3     3539     TIP3     H1       HT       0.417000       1.00800           0
     27967 TIP3     3539     TIP3     H2       HT       0.417000       1.00800           0
     27968 TIP3     3540     TIP3     OH2      OT      -0.834000       15.9994           0
     27969 TIP3     3540     TIP3     H1       HT       0.417000       1.00800           0
     27970 TIP3     3540     TIP3     H2       HT       0.417000       1.00800           0
     27971 TIP3     3541     TIP3     OH2      OT      -0.834000       15.9994           0
     27972 TIP3     3541     TIP3     H1       HT       0.417000       1.00800           0
     27973 TIP3     3541     TIP3     H2       HT       0.417000       1.00800           0
     27974 TIP3     3542     TIP3     OH2      OT      -0.834000       15.9994           0
     27975 TIP3     3542     TIP3     H1       HT       0.417000       1.00800           0
     27976 TIP3     3542     TIP3     H2       HT       0.417000       1.00800           0
     27977 TIP3     3543     TIP3     OH2      OT      -0.834000       15.9994           0
     27978 TIP3     3543     TIP3     H1       HT       0.417000       1.00800           0
     27979 TIP3     3543     TIP3     H2       HT       0.417000       1.00800           0
     27980 TIP3     3544     TIP3     OH2      OT      -0.834000       15.9994           0
     27981 TIP3     3544     TIP3     H1       HT       0.417000       1.00800           0
     27982 TIP3     3544     TIP3     H2       HT       0.417000       1.00800           0
     27983 TIP3     3545     TIP3     OH2      OT      -0.834000       15.9994           0
     27984 TIP3     3545     TIP3     H1       HT       0.417000       1.00800           0
     27985 TIP3     3545     TIP3     H2       HT       0.417000       1.00800           0
     27986 TIP3     3546     TIP3     OH2      OT      -0.834000       15.9994           0
     27987 TIP3     3546     TIP3     H1       HT       0.417000       1.00800           0
     27988 TIP3     3546     TIP3     H2       HT       0.417000       1.00800           0
     27989 TIP3     3547     TIP3     OH2      OT      -0.834000       15.9994           0
     27990 TIP3     3547     TIP3     H1       HT       0.417000       1.00800           0
     27991 TIP3     3547     TIP3     H2       HT       0.417000       1.00800           0
     27992 TIP3     3548     TIP3     OH2      OT      -0.834000       15.9994           0
     27993 TIP3     3548     TIP3     H1       HT       0.417000       1.00800           0
     27994 TIP3     3548     TIP3     H2       HT       0.417000       1.00800           0
     27995 TIP3     3549     TIP3     OH2      OT      -0.834000       15.9994           0
     27996 TIP3     3549     TIP3     H1       HT       0.417000       1.00800           0
     27997 TIP3     3549     TIP3     H2       HT       0.417000       1.00800           0
     27998 TIP3     3550     TIP3     OH2      OT      -0.834000       15.9994           0
     27999 TIP3     3550     TIP3     H1       HT       0.417000       1.00800           0
     28000 TIP3     3550     TIP3     H2       HT       0.417000       1.00800           0
     28001 TIP3     3551     TIP3     OH2      OT      -0.834000       15.9994           0
     28002 TIP3     3551     TIP3     H1       HT       0.417000       1.00800           0
     28003 TIP3     3551     TIP3     H2       HT       0.417000       1.00800           0
     28004 TIP3     3552     TIP3     OH2      OT      -0.834000       15.9994           0
     28005 TIP3     3552     TIP3     H1       HT       0.417000       1.00800           0
     28006 TIP3     3552     TIP3     H2       HT       0.417000       1.00800           0
     28007 TIP3     3553     TIP3     OH2      OT      -0.834000       15.9994           0
     28008 TIP3     3553     TIP3     H1       HT       0.417000       1.00800           0
     28009 TIP3     3553     TIP3     H2       HT       0.417000       1.00800           0
     28010 TIP3     3554     TIP3     OH2      OT      -0.834000       15.9994           0
     28011 TIP3     3554     TIP3     H1       HT       0.417000       1.00800           0
     28012 TIP3     3554     TIP3     H2       HT       0.417000       1.00800           0
     28013 TIP3     3555     TIP3     OH2      OT      -0.834000       15.9994           0
     28014 TIP3     3555     TIP3     H1       HT       0.417000       1.00800           0
     28015 TIP3     3555     TIP3     H2       HT       0.417000       1.00800           0
     28016 TIP3     3556     TIP3     OH2      OT      -0.834000       15.9994           0
     28017 TIP3     3556     TIP3     H1       HT       0.417000       1.00800           0
     28018 TIP3     3556     TIP3     H2       HT       0.417000       1.00800           0
     28019 TIP3     3557     TIP3     OH2      OT      -0.834000       15.9994           0
     28020 TIP3     3557     TIP3     H1       HT       0.417000       1.00800           0
     28021 TIP3     3557     TIP3     H2       HT       0.417000       1.00800           0
     28022 TIP3     3558     TIP3     OH2      OT      -0.834000       15.9994           0
     28023 TIP3     3558     TIP3     H1       HT       0.417000       1.00800           0
     28024 TIP3     3558     TIP3     H2       HT       0.417000       1.00800           0
     28025 TIP3     3559     TIP3     OH2      OT      -0.834000       15.9994           0
     28026 TIP3     3559     TIP3     H1       HT       0.417000       1.00800           0
     28027 TIP3     3559     TIP3     H2       HT       0.417000       1.00800           0
     28028 TIP3     3560     TIP3     OH2      OT      -0.834000       15.9994           0
     28029 TIP3     3560     TIP3     H1       HT       0.417000       1.00800           0
     28030 TIP3     3560     TIP3     H2       HT       0.417000       1.00800           0
     28031 TIP3     3561     TIP3     OH2      OT      -0.834000       15.9994           0
     28032 TIP3     3561     TIP3     H1       HT       0.417000       1.00800           0
     28033 TIP3     3561     TIP3     H2       HT       0.417000       1.00800           0
     28034 TIP3     3562     TIP3     OH2      OT      -0.834000       15.9994           0
     28035 TIP3     3562     TIP3     H1       HT       0.417000       1.00800           0
     28036 TIP3     3562     TIP3     H2       HT       0.417000       1.00800           0
     28037 TIP3     3563     TIP3     OH2      OT      -0.834000       15.9994           0
     28038 TIP3     3563     TIP3     H1       HT       0.417000       1.00800           0
     28039 TIP3     3563     TIP3     H2       HT       0.417000       1.00800           0
     28040 TIP3     3564     TIP3     OH2      OT      -0.834000       15.9994           0
     28041 TIP3     3564     TIP3     H1       HT       0.417000       1.00800           0
     28042 TIP3     3564     TIP3     H2       HT       0.417000       1.00800           0
     28043 TIP3     3565     TIP3     OH2      OT      -0.834000       15.9994           0
     28044 TIP3     3565     TIP3     H1       HT       0.417000       1.00800           0
     28045 TIP3     3565     TIP3     H2       HT       0.417000       1.00800           0
     28046 TIP3     3566     TIP3     OH2      OT      -0.834000       15.9994           0
     28047 TIP3     3566     TIP3     H1       HT       0.417000       1.00800           0
     28048 TIP3     3566     TIP3     H2       HT       0.417000       1.00800           0
     28049 TIP3     3567     TIP3     OH2      OT      -0.834000       15.9994           0
     28050 TIP3     3567     TIP3     H1       HT       0.417000       1.00800           0
     28051 TIP3     3567     TIP3     H2       HT       0.417000       1.00800           0
     28052 TIP3     3568     TIP3     OH2      OT      -0.834000       15.9994           0
     28053 TIP3     3568     TIP3     H1       HT       0.417000       1.00800           0
     28054 TIP3     3568     TIP3     H2       HT       0.417000       1.00800           0
     28055 TIP3     3569     TIP3     OH2      OT      -0.834000       15.9994           0
     28056 TIP3     3569     TIP3     H1       HT       0.417000       1.00800           0
     28057 TIP3     3569     TIP3     H2       HT       0.417000       1.00800           0
     28058 TIP3     3570     TIP3     OH2      OT      -0.834000       15.9994           0
     28059 TIP3     3570     TIP3     H1       HT       0.417000       1.00800           0
     28060 TIP3     3570     TIP3     H2       HT       0.417000       1.00800           0
     28061 TIP3     3571     TIP3     OH2      OT      -0.834000       15.9994           0
     28062 TIP3     3571     TIP3     H1       HT       0.417000       1.00800           0
     28063 TIP3     3571     TIP3     H2       HT       0.417000       1.00800           0
     28064 TIP3     3572     TIP3     OH2      OT      -0.834000       15.9994           0
     28065 TIP3     3572     TIP3     H1       HT       0.417000       1.00800           0
     28066 TIP3     3572     TIP3     H2       HT       0.417000       1.00800           0
     28067 TIP3     3573     TIP3     OH2      OT      -0.834000       15.9994           0
     28068 TIP3     3573     TIP3     H1       HT       0.417000       1.00800           0
     28069 TIP3     3573     TIP3     H2       HT       0.417000       1.00800           0
     28070 TIP3     3574     TIP3     OH2      OT      -0.834000       15.9994           0
     28071 TIP3     3574     TIP3     H1       HT       0.417000       1.00800           0
     28072 TIP3     3574     TIP3     H2       HT       0.417000       1.00800           0
     28073 TIP3     3575     TIP3     OH2      OT      -0.834000       15.9994           0
     28074 TIP3     3575     TIP3     H1       HT       0.417000       1.00800           0
     28075 TIP3     3575     TIP3     H2       HT       0.417000       1.00800           0
     28076 TIP3     3576     TIP3     OH2      OT      -0.834000       15.9994           0
     28077 TIP3     3576     TIP3     H1       HT       0.417000       1.00800           0
     28078 TIP3     3576     TIP3     H2       HT       0.417000       1.00800           0
     28079 TIP3     3577     TIP3     OH2      OT      -0.834000       15.9994           0
     28080 TIP3     3577     TIP3     H1       HT       0.417000       1.00800           0
     28081 TIP3     3577     TIP3     H2       HT       0.417000       1.00800           0
     28082 TIP3     3578     TIP3     OH2      OT      -0.834000       15.9994           0
     28083 TIP3     3578     TIP3     H1       HT       0.417000       1.00800           0
     28084 TIP3     3578     TIP3     H2       HT       0.417000       1.00800           0
     28085 TIP3     3579     TIP3     OH2      OT      -0.834000       15.9994           0
     28086 TIP3     3579     TIP3     H1       HT       0.417000       1.00800           0
     28087 TIP3     3579     TIP3     H2       HT       0.417000       1.00800           0
     28088 TIP3     3580     TIP3     OH2      OT      -0.834000       15.9994           0
     28089 TIP3     3580     TIP3     H1       HT       0.417000       1.00800           0
     28090 TIP3     3580     TIP3     H2       HT       0.417000       1.00800           0
     28091 TIP3     3581     TIP3     OH2      OT      -0.834000       15.9994           0
     28092 TIP3     3581     TIP3     H1       HT       0.417000       1.00800           0
     28093 TIP3     3581     TIP3     H2       HT       0.417000       1.00800           0
     28094 TIP3     3582     TIP3     OH2      OT      -0.834000       15.9994           0
     28095 TIP3     3582     TIP3     H1       HT       0.417000       1.00800           0
     28096 TIP3     3582     TIP3     H2       HT       0.417000       1.00800           0
     28097 TIP3     3583     TIP3     OH2      OT      -0.834000       15.9994           0
     28098 TIP3     3583     TIP3     H1       HT       0.417000       1.00800           0
     28099 TIP3     3583     TIP3     H2       HT       0.417000       1.00800           0
     28100 TIP3     3584     TIP3     OH2      OT      -0.834000       15.9994           0
     28101 TIP3     3584     TIP3     H1       HT       0.417000       1.00800           0
     28102 TIP3     3584     TIP3     H2       HT       0.417000       1.00800           0
     28103 TIP3     3585     TIP3     OH2      OT      -0.834000       15.9994           0
     28104 TIP3     3585     TIP3     H1       HT       0.417000       1.00800           0
     28105 TIP3     3585     TIP3     H2       HT       0.417000       1.00800           0
     28106 TIP3     3586     TIP3     OH2      OT      -0.834000       15.9994           0
     28107 TIP3     3586     TIP3     H1       HT       0.417000       1.00800           0
     28108 TIP3     3586     TIP3     H2       HT       0.417000       1.00800           0
     28109 TIP3     3587     TIP3     OH2      OT      -0.834000       15.9994           0
     28110 TIP3     3587     TIP3     H1       HT       0.417000       1.00800           0
     28111 TIP3     3587     TIP3     H2       HT       0.417000       1.00800           0
     28112 TIP3     3588     TIP3     OH2      OT      -0.834000       15.9994           0
     28113 TIP3     3588     TIP3     H1       HT       0.417000       1.00800           0
     28114 TIP3     3588     TIP3     H2       HT       0.417000       1.00800           0
     28115 TIP3     3589     TIP3     OH2      OT      -0.834000       15.9994           0
     28116 TIP3     3589     TIP3     H1       HT       0.417000       1.00800           0
     28117 TIP3     3589     TIP3     H2       HT       0.417000       1.00800           0
     28118 TIP3     3590     TIP3     OH2      OT      -0.834000       15.9994           0
     28119 TIP3     3590     TIP3     H1       HT       0.417000       1.00800           0
     28120 TIP3     3590     TIP3     H2       HT       0.417000       1.00800           0
     28121 TIP3     3591     TIP3     OH2      OT      -0.834000       15.9994           0
     28122 TIP3     3591     TIP3     H1       HT       0.417000       1.00800           0
     28123 TIP3     3591     TIP3     H2       HT       0.417000       1.00800           0
     28124 TIP3     3592     TIP3     OH2      OT      -0.834000       15.9994           0
     28125 TIP3     3592     TIP3     H1       HT       0.417000       1.00800           0
     28126 TIP3     3592     TIP3     H2       HT       0.417000       1.00800           0
     28127 TIP3     3593     TIP3     OH2      OT      -0.834000       15.9994           0
     28128 TIP3     3593     TIP3     H1       HT       0.417000       1.00800           0
     28129 TIP3     3593     TIP3     H2       HT       0.417000       1.00800           0
     28130 TIP3     3594     TIP3     OH2      OT      -0.834000       15.9994           0
     28131 TIP3     3594     TIP3     H1       HT       0.417000       1.00800           0
     28132 TIP3     3594     TIP3     H2       HT       0.417000       1.00800           0
     28133 TIP3     3595     TIP3     OH2      OT      -0.834000       15.9994           0
     28134 TIP3     3595     TIP3     H1       HT       0.417000       1.00800           0
     28135 TIP3     3595     TIP3     H2       HT       0.417000       1.00800           0
     28136 TIP3     3596     TIP3     OH2      OT      -0.834000       15.9994           0
     28137 TIP3     3596     TIP3     H1       HT       0.417000       1.00800           0
     28138 TIP3     3596     TIP3     H2       HT       0.417000       1.00800           0
     28139 TIP3     3597     TIP3     OH2      OT      -0.834000       15.9994           0
     28140 TIP3     3597     TIP3     H1       HT       0.417000       1.00800           0
     28141 TIP3     3597     TIP3     H2       HT       0.417000       1.00800           0
     28142 TIP3     3598     TIP3     OH2      OT      -0.834000       15.9994           0
     28143 TIP3     3598     TIP3     H1       HT       0.417000       1.00800           0
     28144 TIP3     3598     TIP3     H2       HT       0.417000       1.00800           0
     28145 TIP3     3599     TIP3     OH2      OT      -0.834000       15.9994           0
     28146 TIP3     3599     TIP3     H1       HT       0.417000       1.00800           0
     28147 TIP3     3599     TIP3     H2       HT       0.417000       1.00800           0
     28148 TIP3     3600     TIP3     OH2      OT      -0.834000       15.9994           0
     28149 TIP3     3600     TIP3     H1       HT       0.417000       1.00800           0
     28150 TIP3     3600     TIP3     H2       HT       0.417000       1.00800           0
     28151 TIP3     3601     TIP3     OH2      OT      -0.834000       15.9994           0
     28152 TIP3     3601     TIP3     H1       HT       0.417000       1.00800           0
     28153 TIP3     3601     TIP3     H2       HT       0.417000       1.00800           0
     28154 TIP3     3602     TIP3     OH2      OT      -0.834000       15.9994           0
     28155 TIP3     3602     TIP3     H1       HT       0.417000       1.00800           0
     28156 TIP3     3602     TIP3     H2       HT       0.417000       1.00800           0
     28157 TIP3     3603     TIP3     OH2      OT      -0.834000       15.9994           0
     28158 TIP3     3603     TIP3     H1       HT       0.417000       1.00800           0
     28159 TIP3     3603     TIP3     H2       HT       0.417000       1.00800           0
     28160 TIP3     3604     TIP3     OH2      OT      -0.834000       15.9994           0
     28161 TIP3     3604     TIP3     H1       HT       0.417000       1.00800           0
     28162 TIP3     3604     TIP3     H2       HT       0.417000       1.00800           0
     28163 TIP3     3605     TIP3     OH2      OT      -0.834000       15.9994           0
     28164 TIP3     3605     TIP3     H1       HT       0.417000       1.00800           0
     28165 TIP3     3605     TIP3     H2       HT       0.417000       1.00800           0
     28166 TIP3     3606     TIP3     OH2      OT      -0.834000       15.9994           0
     28167 TIP3     3606     TIP3     H1       HT       0.417000       1.00800           0
     28168 TIP3     3606     TIP3     H2       HT       0.417000       1.00800           0
     28169 TIP3     3607     TIP3     OH2      OT      -0.834000       15.9994           0
     28170 TIP3     3607     TIP3     H1       HT       0.417000       1.00800           0
     28171 TIP3     3607     TIP3     H2       HT       0.417000       1.00800           0
     28172 TIP3     3608     TIP3     OH2      OT      -0.834000       15.9994           0
     28173 TIP3     3608     TIP3     H1       HT       0.417000       1.00800           0
     28174 TIP3     3608     TIP3     H2       HT       0.417000       1.00800           0
     28175 TIP3     3609     TIP3     OH2      OT      -0.834000       15.9994           0
     28176 TIP3     3609     TIP3     H1       HT       0.417000       1.00800           0
     28177 TIP3     3609     TIP3     H2       HT       0.417000       1.00800           0
     28178 TIP3     3610     TIP3     OH2      OT      -0.834000       15.9994           0
     28179 TIP3     3610     TIP3     H1       HT       0.417000       1.00800           0
     28180 TIP3     3610     TIP3     H2       HT       0.417000       1.00800           0
     28181 TIP3     3611     TIP3     OH2      OT      -0.834000       15.9994           0
     28182 TIP3     3611     TIP3     H1       HT       0.417000       1.00800           0
     28183 TIP3     3611     TIP3     H2       HT       0.417000       1.00800           0
     28184 TIP3     3612     TIP3     OH2      OT      -0.834000       15.9994           0
     28185 TIP3     3612     TIP3     H1       HT       0.417000       1.00800           0
     28186 TIP3     3612     TIP3     H2       HT       0.417000       1.00800           0
     28187 TIP3     3613     TIP3     OH2      OT      -0.834000       15.9994           0
     28188 TIP3     3613     TIP3     H1       HT       0.417000       1.00800           0
     28189 TIP3     3613     TIP3     H2       HT       0.417000       1.00800           0
     28190 TIP3     3614     TIP3     OH2      OT      -0.834000       15.9994           0
     28191 TIP3     3614     TIP3     H1       HT       0.417000       1.00800           0
     28192 TIP3     3614     TIP3     H2       HT       0.417000       1.00800           0
     28193 TIP3     3615     TIP3     OH2      OT      -0.834000       15.9994           0
     28194 TIP3     3615     TIP3     H1       HT       0.417000       1.00800           0
     28195 TIP3     3615     TIP3     H2       HT       0.417000       1.00800           0
     28196 TIP3     3616     TIP3     OH2      OT      -0.834000       15.9994           0
     28197 TIP3     3616     TIP3     H1       HT       0.417000       1.00800           0
     28198 TIP3     3616     TIP3     H2       HT       0.417000       1.00800           0
     28199 TIP3     3617     TIP3     OH2      OT      -0.834000       15.9994           0
     28200 TIP3     3617     TIP3     H1       HT       0.417000       1.00800           0
     28201 TIP3     3617     TIP3     H2       HT       0.417000       1.00800           0
     28202 TIP3     3618     TIP3     OH2      OT      -0.834000       15.9994           0
     28203 TIP3     3618     TIP3     H1       HT       0.417000       1.00800           0
     28204 TIP3     3618     TIP3     H2       HT       0.417000       1.00800           0
     28205 TIP3     3619     TIP3     OH2      OT      -0.834000       15.9994           0
     28206 TIP3     3619     TIP3     H1       HT       0.417000       1.00800           0
     28207 TIP3     3619     TIP3     H2       HT       0.417000       1.00800           0
     28208 TIP3     3620     TIP3     OH2      OT      -0.834000       15.9994           0
     28209 TIP3     3620     TIP3     H1       HT       0.417000       1.00800           0
     28210 TIP3     3620     TIP3     H2       HT       0.417000       1.00800           0
     28211 TIP3     3621     TIP3     OH2      OT      -0.834000       15.9994           0
     28212 TIP3     3621     TIP3     H1       HT       0.417000       1.00800           0
     28213 TIP3     3621     TIP3     H2       HT       0.417000       1.00800           0
     28214 TIP3     3622     TIP3     OH2      OT      -0.834000       15.9994           0
     28215 TIP3     3622     TIP3     H1       HT       0.417000       1.00800           0
     28216 TIP3     3622     TIP3     H2       HT       0.417000       1.00800           0
     28217 TIP3     3623     TIP3     OH2      OT      -0.834000       15.9994           0
     28218 TIP3     3623     TIP3     H1       HT       0.417000       1.00800           0
     28219 TIP3     3623     TIP3     H2       HT       0.417000       1.00800           0
     28220 TIP3     3624     TIP3     OH2      OT      -0.834000       15.9994           0
     28221 TIP3     3624     TIP3     H1       HT       0.417000       1.00800           0
     28222 TIP3     3624     TIP3     H2       HT       0.417000       1.00800           0
     28223 TIP3     3625     TIP3     OH2      OT      -0.834000       15.9994           0
     28224 TIP3     3625     TIP3     H1       HT       0.417000       1.00800           0
     28225 TIP3     3625     TIP3     H2       HT       0.417000       1.00800           0
     28226 TIP3     3626     TIP3     OH2      OT      -0.834000       15.9994           0
     28227 TIP3     3626     TIP3     H1       HT       0.417000       1.00800           0
     28228 TIP3     3626     TIP3     H2       HT       0.417000       1.00800           0
     28229 TIP3     3627     TIP3     OH2      OT      -0.834000       15.9994           0
     28230 TIP3     3627     TIP3     H1       HT       0.417000       1.00800           0
     28231 TIP3     3627     TIP3     H2       HT       0.417000       1.00800           0
     28232 TIP3     3628     TIP3     OH2      OT      -0.834000       15.9994           0
     28233 TIP3     3628     TIP3     H1       HT       0.417000       1.00800           0
     28234 TIP3     3628     TIP3     H2       HT       0.417000       1.00800           0
     28235 TIP3     3629     TIP3     OH2      OT      -0.834000       15.9994           0
     28236 TIP3     3629     TIP3     H1       HT       0.417000       1.00800           0
     28237 TIP3     3629     TIP3     H2       HT       0.417000       1.00800           0
     28238 TIP3     3630     TIP3     OH2      OT      -0.834000       15.9994           0
     28239 TIP3     3630     TIP3     H1       HT       0.417000       1.00800           0
     28240 TIP3     3630     TIP3     H2       HT       0.417000       1.00800           0
     28241 TIP3     3631     TIP3     OH2      OT      -0.834000       15.9994           0
     28242 TIP3     3631     TIP3     H1       HT       0.417000       1.00800           0
     28243 TIP3     3631     TIP3     H2       HT       0.417000       1.00800           0
     28244 TIP3     3632     TIP3     OH2      OT      -0.834000       15.9994           0
     28245 TIP3     3632     TIP3     H1       HT       0.417000       1.00800           0
     28246 TIP3     3632     TIP3     H2       HT       0.417000       1.00800           0
     28247 TIP3     3633     TIP3     OH2      OT      -0.834000       15.9994           0
     28248 TIP3     3633     TIP3     H1       HT       0.417000       1.00800           0
     28249 TIP3     3633     TIP3     H2       HT       0.417000       1.00800           0
     28250 TIP3     3634     TIP3     OH2      OT      -0.834000       15.9994           0
     28251 TIP3     3634     TIP3     H1       HT       0.417000       1.00800           0
     28252 TIP3     3634     TIP3     H2       HT       0.417000       1.00800           0
     28253 TIP3     3635     TIP3     OH2      OT      -0.834000       15.9994           0
     28254 TIP3     3635     TIP3     H1       HT       0.417000       1.00800           0
     28255 TIP3     3635     TIP3     H2       HT       0.417000       1.00800           0
     28256 TIP3     3636     TIP3     OH2      OT      -0.834000       15.9994           0
     28257 TIP3     3636     TIP3     H1       HT       0.417000       1.00800           0
     28258 TIP3     3636     TIP3     H2       HT       0.417000       1.00800           0
     28259 TIP3     3637     TIP3     OH2      OT      -0.834000       15.9994           0
     28260 TIP3     3637     TIP3     H1       HT       0.417000       1.00800           0
     28261 TIP3     3637     TIP3     H2       HT       0.417000       1.00800           0
     28262 TIP3     3638     TIP3     OH2      OT      -0.834000       15.9994           0
     28263 TIP3     3638     TIP3     H1       HT       0.417000       1.00800           0
     28264 TIP3     3638     TIP3     H2       HT       0.417000       1.00800           0
     28265 TIP3     3639     TIP3     OH2      OT      -0.834000       15.9994           0
     28266 TIP3     3639     TIP3     H1       HT       0.417000       1.00800           0
     28267 TIP3     3639     TIP3     H2       HT       0.417000       1.00800           0
     28268 TIP3     3640     TIP3     OH2      OT      -0.834000       15.9994           0
     28269 TIP3     3640     TIP3     H1       HT       0.417000       1.00800           0
     28270 TIP3     3640     TIP3     H2       HT       0.417000       1.00800           0
     28271 TIP3     3641     TIP3     OH2      OT      -0.834000       15.9994           0
     28272 TIP3     3641     TIP3     H1       HT       0.417000       1.00800           0
     28273 TIP3     3641     TIP3     H2       HT       0.417000       1.00800           0
     28274 TIP3     3642     TIP3     OH2      OT      -0.834000       15.9994           0
     28275 TIP3     3642     TIP3     H1       HT       0.417000       1.00800           0
     28276 TIP3     3642     TIP3     H2       HT       0.417000       1.00800           0
     28277 TIP3     3643     TIP3     OH2      OT      -0.834000       15.9994           0
     28278 TIP3     3643     TIP3     H1       HT       0.417000       1.00800           0
     28279 TIP3     3643     TIP3     H2       HT       0.417000       1.00800           0
     28280 TIP3     3644     TIP3     OH2      OT      -0.834000       15.9994           0
     28281 TIP3     3644     TIP3     H1       HT       0.417000       1.00800           0
     28282 TIP3     3644     TIP3     H2       HT       0.417000       1.00800           0
     28283 TIP3     3645     TIP3     OH2      OT      -0.834000       15.9994           0
     28284 TIP3     3645     TIP3     H1       HT       0.417000       1.00800           0
     28285 TIP3     3645     TIP3     H2       HT       0.417000       1.00800           0
     28286 TIP3     3646     TIP3     OH2      OT      -0.834000       15.9994           0
     28287 TIP3     3646     TIP3     H1       HT       0.417000       1.00800           0
     28288 TIP3     3646     TIP3     H2       HT       0.417000       1.00800           0
     28289 TIP3     3647     TIP3     OH2      OT      -0.834000       15.9994           0
     28290 TIP3     3647     TIP3     H1       HT       0.417000       1.00800           0
     28291 TIP3     3647     TIP3     H2       HT       0.417000       1.00800           0
     28292 TIP3     3648     TIP3     OH2      OT      -0.834000       15.9994           0
     28293 TIP3     3648     TIP3     H1       HT       0.417000       1.00800           0
     28294 TIP3     3648     TIP3     H2       HT       0.417000       1.00800           0
     28295 TIP3     3649     TIP3     OH2      OT      -0.834000       15.9994           0
     28296 TIP3     3649     TIP3     H1       HT       0.417000       1.00800           0
     28297 TIP3     3649     TIP3     H2       HT       0.417000       1.00800           0
     28298 TIP3     3650     TIP3     OH2      OT      -0.834000       15.9994           0
     28299 TIP3     3650     TIP3     H1       HT       0.417000       1.00800           0
     28300 TIP3     3650     TIP3     H2       HT       0.417000       1.00800           0
     28301 TIP3     3651     TIP3     OH2      OT      -0.834000       15.9994           0
     28302 TIP3     3651     TIP3     H1       HT       0.417000       1.00800           0
     28303 TIP3     3651     TIP3     H2       HT       0.417000       1.00800           0
     28304 TIP3     3652     TIP3     OH2      OT      -0.834000       15.9994           0
     28305 TIP3     3652     TIP3     H1       HT       0.417000       1.00800           0
     28306 TIP3     3652     TIP3     H2       HT       0.417000       1.00800           0
     28307 TIP3     3653     TIP3     OH2      OT      -0.834000       15.9994           0
     28308 TIP3     3653     TIP3     H1       HT       0.417000       1.00800           0
     28309 TIP3     3653     TIP3     H2       HT       0.417000       1.00800           0
     28310 TIP3     3654     TIP3     OH2      OT      -0.834000       15.9994           0
     28311 TIP3     3654     TIP3     H1       HT       0.417000       1.00800           0
     28312 TIP3     3654     TIP3     H2       HT       0.417000       1.00800           0
     28313 TIP3     3655     TIP3     OH2      OT      -0.834000       15.9994           0
     28314 TIP3     3655     TIP3     H1       HT       0.417000       1.00800           0
     28315 TIP3     3655     TIP3     H2       HT       0.417000       1.00800           0
     28316 TIP3     3656     TIP3     OH2      OT      -0.834000       15.9994           0
     28317 TIP3     3656     TIP3     H1       HT       0.417000       1.00800           0
     28318 TIP3     3656     TIP3     H2       HT       0.417000       1.00800           0
     28319 TIP3     3657     TIP3     OH2      OT      -0.834000       15.9994           0
     28320 TIP3     3657     TIP3     H1       HT       0.417000       1.00800           0
     28321 TIP3     3657     TIP3     H2       HT       0.417000       1.00800           0
     28322 TIP3     3658     TIP3     OH2      OT      -0.834000       15.9994           0
     28323 TIP3     3658     TIP3     H1       HT       0.417000       1.00800           0
     28324 TIP3     3658     TIP3     H2       HT       0.417000       1.00800           0
     28325 TIP3     3659     TIP3     OH2      OT      -0.834000       15.9994           0
     28326 TIP3     3659     TIP3     H1       HT       0.417000       1.00800           0
     28327 TIP3     3659     TIP3     H2       HT       0.417000       1.00800           0
     28328 TIP3     3660     TIP3     OH2      OT      -0.834000       15.9994           0
     28329 TIP3     3660     TIP3     H1       HT       0.417000       1.00800           0
     28330 TIP3     3660     TIP3     H2       HT       0.417000       1.00800           0
     28331 TIP3     3661     TIP3     OH2      OT      -0.834000       15.9994           0
     28332 TIP3     3661     TIP3     H1       HT       0.417000       1.00800           0
     28333 TIP3     3661     TIP3     H2       HT       0.417000       1.00800           0
     28334 TIP3     3662     TIP3     OH2      OT      -0.834000       15.9994           0
     28335 TIP3     3662     TIP3     H1       HT       0.417000       1.00800           0
     28336 TIP3     3662     TIP3     H2       HT       0.417000       1.00800           0
     28337 TIP3     3663     TIP3     OH2      OT      -0.834000       15.9994           0
     28338 TIP3     3663     TIP3     H1       HT       0.417000       1.00800           0
     28339 TIP3     3663     TIP3     H2       HT       0.417000       1.00800           0
     28340 TIP3     3664     TIP3     OH2      OT      -0.834000       15.9994           0
     28341 TIP3     3664     TIP3     H1       HT       0.417000       1.00800           0
     28342 TIP3     3664     TIP3     H2       HT       0.417000       1.00800           0
     28343 TIP3     3665     TIP3     OH2      OT      -0.834000       15.9994           0
     28344 TIP3     3665     TIP3     H1       HT       0.417000       1.00800           0
     28345 TIP3     3665     TIP3     H2       HT       0.417000       1.00800           0
     28346 TIP3     3666     TIP3     OH2      OT      -0.834000       15.9994           0
     28347 TIP3     3666     TIP3     H1       HT       0.417000       1.00800           0
     28348 TIP3     3666     TIP3     H2       HT       0.417000       1.00800           0
     28349 TIP3     3667     TIP3     OH2      OT      -0.834000       15.9994           0
     28350 TIP3     3667     TIP3     H1       HT       0.417000       1.00800           0
     28351 TIP3     3667     TIP3     H2       HT       0.417000       1.00800           0
     28352 TIP3     3668     TIP3     OH2      OT      -0.834000       15.9994           0
     28353 TIP3     3668     TIP3     H1       HT       0.417000       1.00800           0
     28354 TIP3     3668     TIP3     H2       HT       0.417000       1.00800           0
     28355 TIP3     3669     TIP3     OH2      OT      -0.834000       15.9994           0
     28356 TIP3     3669     TIP3     H1       HT       0.417000       1.00800           0
     28357 TIP3     3669     TIP3     H2       HT       0.417000       1.00800           0
     28358 TIP3     3670     TIP3     OH2      OT      -0.834000       15.9994           0
     28359 TIP3     3670     TIP3     H1       HT       0.417000       1.00800           0
     28360 TIP3     3670     TIP3     H2       HT       0.417000       1.00800           0
     28361 TIP3     3671     TIP3     OH2      OT      -0.834000       15.9994           0
     28362 TIP3     3671     TIP3     H1       HT       0.417000       1.00800           0
     28363 TIP3     3671     TIP3     H2       HT       0.417000       1.00800           0
     28364 TIP3     3672     TIP3     OH2      OT      -0.834000       15.9994           0
     28365 TIP3     3672     TIP3     H1       HT       0.417000       1.00800           0
     28366 TIP3     3672     TIP3     H2       HT       0.417000       1.00800           0
     28367 TIP3     3673     TIP3     OH2      OT      -0.834000       15.9994           0
     28368 TIP3     3673     TIP3     H1       HT       0.417000       1.00800           0
     28369 TIP3     3673     TIP3     H2       HT       0.417000       1.00800           0
     28370 TIP3     3674     TIP3     OH2      OT      -0.834000       15.9994           0
     28371 TIP3     3674     TIP3     H1       HT       0.417000       1.00800           0
     28372 TIP3     3674     TIP3     H2       HT       0.417000       1.00800           0
     28373 TIP3     3675     TIP3     OH2      OT      -0.834000       15.9994           0
     28374 TIP3     3675     TIP3     H1       HT       0.417000       1.00800           0
     28375 TIP3     3675     TIP3     H2       HT       0.417000       1.00800           0
     28376 TIP3     3676     TIP3     OH2      OT      -0.834000       15.9994           0
     28377 TIP3     3676     TIP3     H1       HT       0.417000       1.00800           0
     28378 TIP3     3676     TIP3     H2       HT       0.417000       1.00800           0
     28379 TIP3     3677     TIP3     OH2      OT      -0.834000       15.9994           0
     28380 TIP3     3677     TIP3     H1       HT       0.417000       1.00800           0
     28381 TIP3     3677     TIP3     H2       HT       0.417000       1.00800           0
     28382 TIP3     3678     TIP3     OH2      OT      -0.834000       15.9994           0
     28383 TIP3     3678     TIP3     H1       HT       0.417000       1.00800           0
     28384 TIP3     3678     TIP3     H2       HT       0.417000       1.00800           0
     28385 TIP3     3679     TIP3     OH2      OT      -0.834000       15.9994           0
     28386 TIP3     3679     TIP3     H1       HT       0.417000       1.00800           0
     28387 TIP3     3679     TIP3     H2       HT       0.417000       1.00800           0
     28388 TIP3     3680     TIP3     OH2      OT      -0.834000       15.9994           0
     28389 TIP3     3680     TIP3     H1       HT       0.417000       1.00800           0
     28390 TIP3     3680     TIP3     H2       HT       0.417000       1.00800           0
     28391 TIP3     3681     TIP3     OH2      OT      -0.834000       15.9994           0
     28392 TIP3     3681     TIP3     H1       HT       0.417000       1.00800           0
     28393 TIP3     3681     TIP3     H2       HT       0.417000       1.00800           0
     28394 TIP3     3682     TIP3     OH2      OT      -0.834000       15.9994           0
     28395 TIP3     3682     TIP3     H1       HT       0.417000       1.00800           0
     28396 TIP3     3682     TIP3     H2       HT       0.417000       1.00800           0
     28397 TIP3     3683     TIP3     OH2      OT      -0.834000       15.9994           0
     28398 TIP3     3683     TIP3     H1       HT       0.417000       1.00800           0
     28399 TIP3     3683     TIP3     H2       HT       0.417000       1.00800           0
     28400 TIP3     3684     TIP3     OH2      OT      -0.834000       15.9994           0
     28401 TIP3     3684     TIP3     H1       HT       0.417000       1.00800           0
     28402 TIP3     3684     TIP3     H2       HT       0.417000       1.00800           0
     28403 TIP3     3685     TIP3     OH2      OT      -0.834000       15.9994           0
     28404 TIP3     3685     TIP3     H1       HT       0.417000       1.00800           0
     28405 TIP3     3685     TIP3     H2       HT       0.417000       1.00800           0
     28406 TIP3     3686     TIP3     OH2      OT      -0.834000       15.9994           0
     28407 TIP3     3686     TIP3     H1       HT       0.417000       1.00800           0
     28408 TIP3     3686     TIP3     H2       HT       0.417000       1.00800           0
     28409 TIP3     3687     TIP3     OH2      OT      -0.834000       15.9994           0
     28410 TIP3     3687     TIP3     H1       HT       0.417000       1.00800           0
     28411 TIP3     3687     TIP3     H2       HT       0.417000       1.00800           0
     28412 TIP3     3688     TIP3     OH2      OT      -0.834000       15.9994           0
     28413 TIP3     3688     TIP3     H1       HT       0.417000       1.00800           0
     28414 TIP3     3688     TIP3     H2       HT       0.417000       1.00800           0
     28415 TIP3     3689     TIP3     OH2      OT      -0.834000       15.9994           0
     28416 TIP3     3689     TIP3     H1       HT       0.417000       1.00800           0
     28417 TIP3     3689     TIP3     H2       HT       0.417000       1.00800           0
     28418 TIP3     3690     TIP3     OH2      OT      -0.834000       15.9994           0
     28419 TIP3     3690     TIP3     H1       HT       0.417000       1.00800           0
     28420 TIP3     3690     TIP3     H2       HT       0.417000       1.00800           0
     28421 TIP3     3691     TIP3     OH2      OT      -0.834000       15.9994           0
     28422 TIP3     3691     TIP3     H1       HT       0.417000       1.00800           0
     28423 TIP3     3691     TIP3     H2       HT       0.417000       1.00800           0
     28424 TIP3     3692     TIP3     OH2      OT      -0.834000       15.9994           0
     28425 TIP3     3692     TIP3     H1       HT       0.417000       1.00800           0
     28426 TIP3     3692     TIP3     H2       HT       0.417000       1.00800           0
     28427 TIP3     3693     TIP3     OH2      OT      -0.834000       15.9994           0
     28428 TIP3     3693     TIP3     H1       HT       0.417000       1.00800           0
     28429 TIP3     3693     TIP3     H2       HT       0.417000       1.00800           0
     28430 TIP3     3694     TIP3     OH2      OT      -0.834000       15.9994           0
     28431 TIP3     3694     TIP3     H1       HT       0.417000       1.00800           0
     28432 TIP3     3694     TIP3     H2       HT       0.417000       1.00800           0
     28433 TIP3     3695     TIP3     OH2      OT      -0.834000       15.9994           0
     28434 TIP3     3695     TIP3     H1       HT       0.417000       1.00800           0
     28435 TIP3     3695     TIP3     H2       HT       0.417000       1.00800           0
     28436 TIP3     3696     TIP3     OH2      OT      -0.834000       15.9994           0
     28437 TIP3     3696     TIP3     H1       HT       0.417000       1.00800           0
     28438 TIP3     3696     TIP3     H2       HT       0.417000       1.00800           0
     28439 TIP3     3697     TIP3     OH2      OT      -0.834000       15.9994           0
     28440 TIP3     3697     TIP3     H1       HT       0.417000       1.00800           0
     28441 TIP3     3697     TIP3     H2       HT       0.417000       1.00800           0
     28442 TIP3     3698     TIP3     OH2      OT      -0.834000       15.9994           0
     28443 TIP3     3698     TIP3     H1       HT       0.417000       1.00800           0
     28444 TIP3     3698     TIP3     H2       HT       0.417000       1.00800           0
     28445 TIP3     3699     TIP3     OH2      OT      -0.834000       15.9994           0
     28446 TIP3     3699     TIP3     H1       HT       0.417000       1.00800           0
     28447 TIP3     3699     TIP3     H2       HT       0.417000       1.00800           0
     28448 TIP3     3700     TIP3     OH2      OT      -0.834000       15.9994           0
     28449 TIP3     3700     TIP3     H1       HT       0.417000       1.00800           0
     28450 TIP3     3700     TIP3     H2       HT       0.417000       1.00800           0
     28451 TIP3     3701     TIP3     OH2      OT      -0.834000       15.9994           0
     28452 TIP3     3701     TIP3     H1       HT       0.417000       1.00800           0
     28453 TIP3     3701     TIP3     H2       HT       0.417000       1.00800           0
     28454 TIP3     3702     TIP3     OH2      OT      -0.834000       15.9994           0
     28455 TIP3     3702     TIP3     H1       HT       0.417000       1.00800           0
     28456 TIP3     3702     TIP3     H2       HT       0.417000       1.00800           0
     28457 TIP3     3703     TIP3     OH2      OT      -0.834000       15.9994           0
     28458 TIP3     3703     TIP3     H1       HT       0.417000       1.00800           0
     28459 TIP3     3703     TIP3     H2       HT       0.417000       1.00800           0
     28460 TIP3     3704     TIP3     OH2      OT      -0.834000       15.9994           0
     28461 TIP3     3704     TIP3     H1       HT       0.417000       1.00800           0
     28462 TIP3     3704     TIP3     H2       HT       0.417000       1.00800           0
     28463 TIP3     3705     TIP3     OH2      OT      -0.834000       15.9994           0
     28464 TIP3     3705     TIP3     H1       HT       0.417000       1.00800           0
     28465 TIP3     3705     TIP3     H2       HT       0.417000       1.00800           0
     28466 TIP3     3706     TIP3     OH2      OT      -0.834000       15.9994           0
     28467 TIP3     3706     TIP3     H1       HT       0.417000       1.00800           0
     28468 TIP3     3706     TIP3     H2       HT       0.417000       1.00800           0
     28469 TIP3     3707     TIP3     OH2      OT      -0.834000       15.9994           0
     28470 TIP3     3707     TIP3     H1       HT       0.417000       1.00800           0
     28471 TIP3     3707     TIP3     H2       HT       0.417000       1.00800           0
     28472 TIP3     3708     TIP3     OH2      OT      -0.834000       15.9994           0
     28473 TIP3     3708     TIP3     H1       HT       0.417000       1.00800           0
     28474 TIP3     3708     TIP3     H2       HT       0.417000       1.00800           0
     28475 TIP3     3709     TIP3     OH2      OT      -0.834000       15.9994           0
     28476 TIP3     3709     TIP3     H1       HT       0.417000       1.00800           0
     28477 TIP3     3709     TIP3     H2       HT       0.417000       1.00800           0
     28478 TIP3     3710     TIP3     OH2      OT      -0.834000       15.9994           0
     28479 TIP3     3710     TIP3     H1       HT       0.417000       1.00800           0
     28480 TIP3     3710     TIP3     H2       HT       0.417000       1.00800           0
     28481 TIP3     3711     TIP3     OH2      OT      -0.834000       15.9994           0
     28482 TIP3     3711     TIP3     H1       HT       0.417000       1.00800           0
     28483 TIP3     3711     TIP3     H2       HT       0.417000       1.00800           0
     28484 TIP3     3712     TIP3     OH2      OT      -0.834000       15.9994           0
     28485 TIP3     3712     TIP3     H1       HT       0.417000       1.00800           0
     28486 TIP3     3712     TIP3     H2       HT       0.417000       1.00800           0
     28487 TIP3     3713     TIP3     OH2      OT      -0.834000       15.9994           0
     28488 TIP3     3713     TIP3     H1       HT       0.417000       1.00800           0
     28489 TIP3     3713     TIP3     H2       HT       0.417000       1.00800           0
     28490 TIP3     3714     TIP3     OH2      OT      -0.834000       15.9994           0
     28491 TIP3     3714     TIP3     H1       HT       0.417000       1.00800           0
     28492 TIP3     3714     TIP3     H2       HT       0.417000       1.00800           0
     28493 TIP3     3715     TIP3     OH2      OT      -0.834000       15.9994           0
     28494 TIP3     3715     TIP3     H1       HT       0.417000       1.00800           0
     28495 TIP3     3715     TIP3     H2       HT       0.417000       1.00800           0
     28496 TIP3     3716     TIP3     OH2      OT      -0.834000       15.9994           0
     28497 TIP3     3716     TIP3     H1       HT       0.417000       1.00800           0
     28498 TIP3     3716     TIP3     H2       HT       0.417000       1.00800           0
     28499 TIP3     3717     TIP3     OH2      OT      -0.834000       15.9994           0
     28500 TIP3     3717     TIP3     H1       HT       0.417000       1.00800           0
     28501 TIP3     3717     TIP3     H2       HT       0.417000       1.00800           0
     28502 TIP3     3718     TIP3     OH2      OT      -0.834000       15.9994           0
     28503 TIP3     3718     TIP3     H1       HT       0.417000       1.00800           0
     28504 TIP3     3718     TIP3     H2       HT       0.417000       1.00800           0
     28505 TIP3     3719     TIP3     OH2      OT      -0.834000       15.9994           0
     28506 TIP3     3719     TIP3     H1       HT       0.417000       1.00800           0
     28507 TIP3     3719     TIP3     H2       HT       0.417000       1.00800           0
     28508 TIP3     3720     TIP3     OH2      OT      -0.834000       15.9994           0
     28509 TIP3     3720     TIP3     H1       HT       0.417000       1.00800           0
     28510 TIP3     3720     TIP3     H2       HT       0.417000       1.00800           0
     28511 TIP3     3721     TIP3     OH2      OT      -0.834000       15.9994           0
     28512 TIP3     3721     TIP3     H1       HT       0.417000       1.00800           0
     28513 TIP3     3721     TIP3     H2       HT       0.417000       1.00800           0
     28514 TIP3     3722     TIP3     OH2      OT      -0.834000       15.9994           0
     28515 TIP3     3722     TIP3     H1       HT       0.417000       1.00800           0
     28516 TIP3     3722     TIP3     H2       HT       0.417000       1.00800           0
     28517 TIP3     3723     TIP3     OH2      OT      -0.834000       15.9994           0
     28518 TIP3     3723     TIP3     H1       HT       0.417000       1.00800           0
     28519 TIP3     3723     TIP3     H2       HT       0.417000       1.00800           0
     28520 TIP3     3724     TIP3     OH2      OT      -0.834000       15.9994           0
     28521 TIP3     3724     TIP3     H1       HT       0.417000       1.00800           0
     28522 TIP3     3724     TIP3     H2       HT       0.417000       1.00800           0
     28523 TIP3     3725     TIP3     OH2      OT      -0.834000       15.9994           0
     28524 TIP3     3725     TIP3     H1       HT       0.417000       1.00800           0
     28525 TIP3     3725     TIP3     H2       HT       0.417000       1.00800           0
     28526 TIP3     3726     TIP3     OH2      OT      -0.834000       15.9994           0
     28527 TIP3     3726     TIP3     H1       HT       0.417000       1.00800           0
     28528 TIP3     3726     TIP3     H2       HT       0.417000       1.00800           0
     28529 TIP3     3727     TIP3     OH2      OT      -0.834000       15.9994           0
     28530 TIP3     3727     TIP3     H1       HT       0.417000       1.00800           0
     28531 TIP3     3727     TIP3     H2       HT       0.417000       1.00800           0
     28532 TIP3     3728     TIP3     OH2      OT      -0.834000       15.9994           0
     28533 TIP3     3728     TIP3     H1       HT       0.417000       1.00800           0
     28534 TIP3     3728     TIP3     H2       HT       0.417000       1.00800           0
     28535 TIP3     3729     TIP3     OH2      OT      -0.834000       15.9994           0
     28536 TIP3     3729     TIP3     H1       HT       0.417000       1.00800           0
     28537 TIP3     3729     TIP3     H2       HT       0.417000       1.00800           0
     28538 TIP3     3730     TIP3     OH2      OT      -0.834000       15.9994           0
     28539 TIP3     3730     TIP3     H1       HT       0.417000       1.00800           0
     28540 TIP3     3730     TIP3     H2       HT       0.417000       1.00800           0
     28541 TIP3     3731     TIP3     OH2      OT      -0.834000       15.9994           0
     28542 TIP3     3731     TIP3     H1       HT       0.417000       1.00800           0
     28543 TIP3     3731     TIP3     H2       HT       0.417000       1.00800           0
     28544 TIP3     3732     TIP3     OH2      OT      -0.834000       15.9994           0
     28545 TIP3     3732     TIP3     H1       HT       0.417000       1.00800           0
     28546 TIP3     3732     TIP3     H2       HT       0.417000       1.00800           0
     28547 TIP3     3733     TIP3     OH2      OT      -0.834000       15.9994           0
     28548 TIP3     3733     TIP3     H1       HT       0.417000       1.00800           0
     28549 TIP3     3733     TIP3     H2       HT       0.417000       1.00800           0
     28550 TIP3     3734     TIP3     OH2      OT      -0.834000       15.9994           0
     28551 TIP3     3734     TIP3     H1       HT       0.417000       1.00800           0
     28552 TIP3     3734     TIP3     H2       HT       0.417000       1.00800           0
     28553 TIP3     3735     TIP3     OH2      OT      -0.834000       15.9994           0
     28554 TIP3     3735     TIP3     H1       HT       0.417000       1.00800           0
     28555 TIP3     3735     TIP3     H2       HT       0.417000       1.00800           0
     28556 TIP3     3736     TIP3     OH2      OT      -0.834000       15.9994           0
     28557 TIP3     3736     TIP3     H1       HT       0.417000       1.00800           0
     28558 TIP3     3736     TIP3     H2       HT       0.417000       1.00800           0
     28559 TIP3     3737     TIP3     OH2      OT      -0.834000       15.9994           0
     28560 TIP3     3737     TIP3     H1       HT       0.417000       1.00800           0
     28561 TIP3     3737     TIP3     H2       HT       0.417000       1.00800           0
     28562 TIP3     3738     TIP3     OH2      OT      -0.834000       15.9994           0
     28563 TIP3     3738     TIP3     H1       HT       0.417000       1.00800           0
     28564 TIP3     3738     TIP3     H2       HT       0.417000       1.00800           0
     28565 TIP3     3739     TIP3     OH2      OT      -0.834000       15.9994           0
     28566 TIP3     3739     TIP3     H1       HT       0.417000       1.00800           0
     28567 TIP3     3739     TIP3     H2       HT       0.417000       1.00800           0
     28568 TIP3     3740     TIP3     OH2      OT      -0.834000       15.9994           0
     28569 TIP3     3740     TIP3     H1       HT       0.417000       1.00800           0
     28570 TIP3     3740     TIP3     H2       HT       0.417000       1.00800           0
     28571 TIP3     3741     TIP3     OH2      OT      -0.834000       15.9994           0
     28572 TIP3     3741     TIP3     H1       HT       0.417000       1.00800           0
     28573 TIP3     3741     TIP3     H2       HT       0.417000       1.00800           0
     28574 TIP3     3742     TIP3     OH2      OT      -0.834000       15.9994           0
     28575 TIP3     3742     TIP3     H1       HT       0.417000       1.00800           0
     28576 TIP3     3742     TIP3     H2       HT       0.417000       1.00800           0
     28577 TIP3     3743     TIP3     OH2      OT      -0.834000       15.9994           0
     28578 TIP3     3743     TIP3     H1       HT       0.417000       1.00800           0
     28579 TIP3     3743     TIP3     H2       HT       0.417000       1.00800           0
     28580 TIP3     3744     TIP3     OH2      OT      -0.834000       15.9994           0
     28581 TIP3     3744     TIP3     H1       HT       0.417000       1.00800           0
     28582 TIP3     3744     TIP3     H2       HT       0.417000       1.00800           0
     28583 TIP3     3745     TIP3     OH2      OT      -0.834000       15.9994           0
     28584 TIP3     3745     TIP3     H1       HT       0.417000       1.00800           0
     28585 TIP3     3745     TIP3     H2       HT       0.417000       1.00800           0
     28586 TIP3     3746     TIP3     OH2      OT      -0.834000       15.9994           0
     28587 TIP3     3746     TIP3     H1       HT       0.417000       1.00800           0
     28588 TIP3     3746     TIP3     H2       HT       0.417000       1.00800           0
     28589 TIP3     3747     TIP3     OH2      OT      -0.834000       15.9994           0
     28590 TIP3     3747     TIP3     H1       HT       0.417000       1.00800           0
     28591 TIP3     3747     TIP3     H2       HT       0.417000       1.00800           0
     28592 TIP3     3748     TIP3     OH2      OT      -0.834000       15.9994           0
     28593 TIP3     3748     TIP3     H1       HT       0.417000       1.00800           0
     28594 TIP3     3748     TIP3     H2       HT       0.417000       1.00800           0
     28595 TIP3     3749     TIP3     OH2      OT      -0.834000       15.9994           0
     28596 TIP3     3749     TIP3     H1       HT       0.417000       1.00800           0
     28597 TIP3     3749     TIP3     H2       HT       0.417000       1.00800           0
     28598 TIP3     3750     TIP3     OH2      OT      -0.834000       15.9994           0
     28599 TIP3     3750     TIP3     H1       HT       0.417000       1.00800           0
     28600 TIP3     3750     TIP3     H2       HT       0.417000       1.00800           0
     28601 TIP3     3751     TIP3     OH2      OT      -0.834000       15.9994           0
     28602 TIP3     3751     TIP3     H1       HT       0.417000       1.00800           0
     28603 TIP3     3751     TIP3     H2       HT       0.417000       1.00800           0
     28604 TIP3     3752     TIP3     OH2      OT      -0.834000       15.9994           0
     28605 TIP3     3752     TIP3     H1       HT       0.417000       1.00800           0
     28606 TIP3     3752     TIP3     H2       HT       0.417000       1.00800           0
     28607 TIP3     3753     TIP3     OH2      OT      -0.834000       15.9994           0
     28608 TIP3     3753     TIP3     H1       HT       0.417000       1.00800           0
     28609 TIP3     3753     TIP3     H2       HT       0.417000       1.00800           0
     28610 TIP3     3754     TIP3     OH2      OT      -0.834000       15.9994           0
     28611 TIP3     3754     TIP3     H1       HT       0.417000       1.00800           0
     28612 TIP3     3754     TIP3     H2       HT       0.417000       1.00800           0
     28613 TIP3     3755     TIP3     OH2      OT      -0.834000       15.9994           0
     28614 TIP3     3755     TIP3     H1       HT       0.417000       1.00800           0
     28615 TIP3     3755     TIP3     H2       HT       0.417000       1.00800           0
     28616 TIP3     3756     TIP3     OH2      OT      -0.834000       15.9994           0
     28617 TIP3     3756     TIP3     H1       HT       0.417000       1.00800           0
     28618 TIP3     3756     TIP3     H2       HT       0.417000       1.00800           0
     28619 TIP3     3757     TIP3     OH2      OT      -0.834000       15.9994           0
     28620 TIP3     3757     TIP3     H1       HT       0.417000       1.00800           0
     28621 TIP3     3757     TIP3     H2       HT       0.417000       1.00800           0
     28622 TIP3     3758     TIP3     OH2      OT      -0.834000       15.9994           0
     28623 TIP3     3758     TIP3     H1       HT       0.417000       1.00800           0
     28624 TIP3     3758     TIP3     H2       HT       0.417000       1.00800           0
     28625 TIP3     3759     TIP3     OH2      OT      -0.834000       15.9994           0
     28626 TIP3     3759     TIP3     H1       HT       0.417000       1.00800           0
     28627 TIP3     3759     TIP3     H2       HT       0.417000       1.00800           0
     28628 TIP3     3760     TIP3     OH2      OT      -0.834000       15.9994           0
     28629 TIP3     3760     TIP3     H1       HT       0.417000       1.00800           0
     28630 TIP3     3760     TIP3     H2       HT       0.417000       1.00800           0
     28631 TIP3     3761     TIP3     OH2      OT      -0.834000       15.9994           0
     28632 TIP3     3761     TIP3     H1       HT       0.417000       1.00800           0
     28633 TIP3     3761     TIP3     H2       HT       0.417000       1.00800           0
     28634 TIP3     3762     TIP3     OH2      OT      -0.834000       15.9994           0
     28635 TIP3     3762     TIP3     H1       HT       0.417000       1.00800           0
     28636 TIP3     3762     TIP3     H2       HT       0.417000       1.00800           0
     28637 TIP3     3763     TIP3     OH2      OT      -0.834000       15.9994           0
     28638 TIP3     3763     TIP3     H1       HT       0.417000       1.00800           0
     28639 TIP3     3763     TIP3     H2       HT       0.417000       1.00800           0
     28640 TIP3     3764     TIP3     OH2      OT      -0.834000       15.9994           0
     28641 TIP3     3764     TIP3     H1       HT       0.417000       1.00800           0
     28642 TIP3     3764     TIP3     H2       HT       0.417000       1.00800           0
     28643 TIP3     3765     TIP3     OH2      OT      -0.834000       15.9994           0
     28644 TIP3     3765     TIP3     H1       HT       0.417000       1.00800           0
     28645 TIP3     3765     TIP3     H2       HT       0.417000       1.00800           0
     28646 TIP3     3766     TIP3     OH2      OT      -0.834000       15.9994           0
     28647 TIP3     3766     TIP3     H1       HT       0.417000       1.00800           0
     28648 TIP3     3766     TIP3     H2       HT       0.417000       1.00800           0
     28649 TIP3     3767     TIP3     OH2      OT      -0.834000       15.9994           0
     28650 TIP3     3767     TIP3     H1       HT       0.417000       1.00800           0
     28651 TIP3     3767     TIP3     H2       HT       0.417000       1.00800           0
     28652 TIP3     3768     TIP3     OH2      OT      -0.834000       15.9994           0
     28653 TIP3     3768     TIP3     H1       HT       0.417000       1.00800           0
     28654 TIP3     3768     TIP3     H2       HT       0.417000       1.00800           0
     28655 TIP3     3769     TIP3     OH2      OT      -0.834000       15.9994           0
     28656 TIP3     3769     TIP3     H1       HT       0.417000       1.00800           0
     28657 TIP3     3769     TIP3     H2       HT       0.417000       1.00800           0
     28658 TIP3     3770     TIP3     OH2      OT      -0.834000       15.9994           0
     28659 TIP3     3770     TIP3     H1       HT       0.417000       1.00800           0
     28660 TIP3     3770     TIP3     H2       HT       0.417000       1.00800           0
     28661 TIP3     3771     TIP3     OH2      OT      -0.834000       15.9994           0
     28662 TIP3     3771     TIP3     H1       HT       0.417000       1.00800           0
     28663 TIP3     3771     TIP3     H2       HT       0.417000       1.00800           0
     28664 TIP3     3772     TIP3     OH2      OT      -0.834000       15.9994           0
     28665 TIP3     3772     TIP3     H1       HT       0.417000       1.00800           0
     28666 TIP3     3772     TIP3     H2       HT       0.417000       1.00800           0
     28667 TIP3     3773     TIP3     OH2      OT      -0.834000       15.9994           0
     28668 TIP3     3773     TIP3     H1       HT       0.417000       1.00800           0
     28669 TIP3     3773     TIP3     H2       HT       0.417000       1.00800           0
     28670 TIP3     3774     TIP3     OH2      OT      -0.834000       15.9994           0
     28671 TIP3     3774     TIP3     H1       HT       0.417000       1.00800           0
     28672 TIP3     3774     TIP3     H2       HT       0.417000       1.00800           0
     28673 TIP3     3775     TIP3     OH2      OT      -0.834000       15.9994           0
     28674 TIP3     3775     TIP3     H1       HT       0.417000       1.00800           0
     28675 TIP3     3775     TIP3     H2       HT       0.417000       1.00800           0
     28676 TIP3     3776     TIP3     OH2      OT      -0.834000       15.9994           0
     28677 TIP3     3776     TIP3     H1       HT       0.417000       1.00800           0
     28678 TIP3     3776     TIP3     H2       HT       0.417000       1.00800           0
     28679 TIP3     3777     TIP3     OH2      OT      -0.834000       15.9994           0
     28680 TIP3     3777     TIP3     H1       HT       0.417000       1.00800           0
     28681 TIP3     3777     TIP3     H2       HT       0.417000       1.00800           0
     28682 TIP3     3778     TIP3     OH2      OT      -0.834000       15.9994           0
     28683 TIP3     3778     TIP3     H1       HT       0.417000       1.00800           0
     28684 TIP3     3778     TIP3     H2       HT       0.417000       1.00800           0
     28685 TIP3     3779     TIP3     OH2      OT      -0.834000       15.9994           0
     28686 TIP3     3779     TIP3     H1       HT       0.417000       1.00800           0
     28687 TIP3     3779     TIP3     H2       HT       0.417000       1.00800           0
     28688 TIP3     3780     TIP3     OH2      OT      -0.834000       15.9994           0
     28689 TIP3     3780     TIP3     H1       HT       0.417000       1.00800           0
     28690 TIP3     3780     TIP3     H2       HT       0.417000       1.00800           0
     28691 TIP3     3781     TIP3     OH2      OT      -0.834000       15.9994           0
     28692 TIP3     3781     TIP3     H1       HT       0.417000       1.00800           0
     28693 TIP3     3781     TIP3     H2       HT       0.417000       1.00800           0
     28694 TIP3     3782     TIP3     OH2      OT      -0.834000       15.9994           0
     28695 TIP3     3782     TIP3     H1       HT       0.417000       1.00800           0
     28696 TIP3     3782     TIP3     H2       HT       0.417000       1.00800           0
     28697 TIP3     3783     TIP3     OH2      OT      -0.834000       15.9994           0
     28698 TIP3     3783     TIP3     H1       HT       0.417000       1.00800           0
     28699 TIP3     3783     TIP3     H2       HT       0.417000       1.00800           0
     28700 TIP3     3784     TIP3     OH2      OT      -0.834000       15.9994           0
     28701 TIP3     3784     TIP3     H1       HT       0.417000       1.00800           0
     28702 TIP3     3784     TIP3     H2       HT       0.417000       1.00800           0
     28703 TIP3     3785     TIP3     OH2      OT      -0.834000       15.9994           0
     28704 TIP3     3785     TIP3     H1       HT       0.417000       1.00800           0
     28705 TIP3     3785     TIP3     H2       HT       0.417000       1.00800           0
     28706 TIP3     3786     TIP3     OH2      OT      -0.834000       15.9994           0
     28707 TIP3     3786     TIP3     H1       HT       0.417000       1.00800           0
     28708 TIP3     3786     TIP3     H2       HT       0.417000       1.00800           0
     28709 TIP3     3787     TIP3     OH2      OT      -0.834000       15.9994           0
     28710 TIP3     3787     TIP3     H1       HT       0.417000       1.00800           0
     28711 TIP3     3787     TIP3     H2       HT       0.417000       1.00800           0
     28712 TIP3     3788     TIP3     OH2      OT      -0.834000       15.9994           0
     28713 TIP3     3788     TIP3     H1       HT       0.417000       1.00800           0
     28714 TIP3     3788     TIP3     H2       HT       0.417000       1.00800           0
     28715 TIP3     3789     TIP3     OH2      OT      -0.834000       15.9994           0
     28716 TIP3     3789     TIP3     H1       HT       0.417000       1.00800           0
     28717 TIP3     3789     TIP3     H2       HT       0.417000       1.00800           0
     28718 TIP3     3790     TIP3     OH2      OT      -0.834000       15.9994           0
     28719 TIP3     3790     TIP3     H1       HT       0.417000       1.00800           0
     28720 TIP3     3790     TIP3     H2       HT       0.417000       1.00800           0
     28721 TIP3     3791     TIP3     OH2      OT      -0.834000       15.9994           0
     28722 TIP3     3791     TIP3     H1       HT       0.417000       1.00800           0
     28723 TIP3     3791     TIP3     H2       HT       0.417000       1.00800           0
     28724 TIP3     3792     TIP3     OH2      OT      -0.834000       15.9994           0
     28725 TIP3     3792     TIP3     H1       HT       0.417000       1.00800           0
     28726 TIP3     3792     TIP3     H2       HT       0.417000       1.00800           0
     28727 TIP3     3793     TIP3     OH2      OT      -0.834000       15.9994           0
     28728 TIP3     3793     TIP3     H1       HT       0.417000       1.00800           0
     28729 TIP3     3793     TIP3     H2       HT       0.417000       1.00800           0
     28730 TIP3     3794     TIP3     OH2      OT      -0.834000       15.9994           0
     28731 TIP3     3794     TIP3     H1       HT       0.417000       1.00800           0
     28732 TIP3     3794     TIP3     H2       HT       0.417000       1.00800           0
     28733 TIP3     3795     TIP3     OH2      OT      -0.834000       15.9994           0
     28734 TIP3     3795     TIP3     H1       HT       0.417000       1.00800           0
     28735 TIP3     3795     TIP3     H2       HT       0.417000       1.00800           0
     28736 TIP3     3796     TIP3     OH2      OT      -0.834000       15.9994           0
     28737 TIP3     3796     TIP3     H1       HT       0.417000       1.00800           0
     28738 TIP3     3796     TIP3     H2       HT       0.417000       1.00800           0
     28739 TIP3     3797     TIP3     OH2      OT      -0.834000       15.9994           0
     28740 TIP3     3797     TIP3     H1       HT       0.417000       1.00800           0
     28741 TIP3     3797     TIP3     H2       HT       0.417000       1.00800           0
     28742 TIP3     3798     TIP3     OH2      OT      -0.834000       15.9994           0
     28743 TIP3     3798     TIP3     H1       HT       0.417000       1.00800           0
     28744 TIP3     3798     TIP3     H2       HT       0.417000       1.00800           0
     28745 TIP3     3799     TIP3     OH2      OT      -0.834000       15.9994           0
     28746 TIP3     3799     TIP3     H1       HT       0.417000       1.00800           0
     28747 TIP3     3799     TIP3     H2       HT       0.417000       1.00800           0
     28748 TIP3     3800     TIP3     OH2      OT      -0.834000       15.9994           0
     28749 TIP3     3800     TIP3     H1       HT       0.417000       1.00800           0
     28750 TIP3     3800     TIP3     H2       HT       0.417000       1.00800           0
     28751 TIP3     3801     TIP3     OH2      OT      -0.834000       15.9994           0
     28752 TIP3     3801     TIP3     H1       HT       0.417000       1.00800           0
     28753 TIP3     3801     TIP3     H2       HT       0.417000       1.00800           0
     28754 TIP3     3802     TIP3     OH2      OT      -0.834000       15.9994           0
     28755 TIP3     3802     TIP3     H1       HT       0.417000       1.00800           0
     28756 TIP3     3802     TIP3     H2       HT       0.417000       1.00800           0
     28757 TIP3     3803     TIP3     OH2      OT      -0.834000       15.9994           0
     28758 TIP3     3803     TIP3     H1       HT       0.417000       1.00800           0
     28759 TIP3     3803     TIP3     H2       HT       0.417000       1.00800           0
     28760 TIP3     3804     TIP3     OH2      OT      -0.834000       15.9994           0
     28761 TIP3     3804     TIP3     H1       HT       0.417000       1.00800           0
     28762 TIP3     3804     TIP3     H2       HT       0.417000       1.00800           0
     28763 TIP3     3805     TIP3     OH2      OT      -0.834000       15.9994           0
     28764 TIP3     3805     TIP3     H1       HT       0.417000       1.00800           0
     28765 TIP3     3805     TIP3     H2       HT       0.417000       1.00800           0
     28766 TIP3     3806     TIP3     OH2      OT      -0.834000       15.9994           0
     28767 TIP3     3806     TIP3     H1       HT       0.417000       1.00800           0
     28768 TIP3     3806     TIP3     H2       HT       0.417000       1.00800           0
     28769 TIP3     3807     TIP3     OH2      OT      -0.834000       15.9994           0
     28770 TIP3     3807     TIP3     H1       HT       0.417000       1.00800           0
     28771 TIP3     3807     TIP3     H2       HT       0.417000       1.00800           0
     28772 TIP3     3808     TIP3     OH2      OT      -0.834000       15.9994           0
     28773 TIP3     3808     TIP3     H1       HT       0.417000       1.00800           0
     28774 TIP3     3808     TIP3     H2       HT       0.417000       1.00800           0
     28775 TIP3     3809     TIP3     OH2      OT      -0.834000       15.9994           0
     28776 TIP3     3809     TIP3     H1       HT       0.417000       1.00800           0
     28777 TIP3     3809     TIP3     H2       HT       0.417000       1.00800           0
     28778 TIP3     3810     TIP3     OH2      OT      -0.834000       15.9994           0
     28779 TIP3     3810     TIP3     H1       HT       0.417000       1.00800           0
     28780 TIP3     3810     TIP3     H2       HT       0.417000       1.00800           0
     28781 TIP3     3811     TIP3     OH2      OT      -0.834000       15.9994           0
     28782 TIP3     3811     TIP3     H1       HT       0.417000       1.00800           0
     28783 TIP3     3811     TIP3     H2       HT       0.417000       1.00800           0
     28784 TIP3     3812     TIP3     OH2      OT      -0.834000       15.9994           0
     28785 TIP3     3812     TIP3     H1       HT       0.417000       1.00800           0
     28786 TIP3     3812     TIP3     H2       HT       0.417000       1.00800           0
     28787 TIP3     3813     TIP3     OH2      OT      -0.834000       15.9994           0
     28788 TIP3     3813     TIP3     H1       HT       0.417000       1.00800           0
     28789 TIP3     3813     TIP3     H2       HT       0.417000       1.00800           0
     28790 TIP3     3814     TIP3     OH2      OT      -0.834000       15.9994           0
     28791 TIP3     3814     TIP3     H1       HT       0.417000       1.00800           0
     28792 TIP3     3814     TIP3     H2       HT       0.417000       1.00800           0
     28793 TIP3     3815     TIP3     OH2      OT      -0.834000       15.9994           0
     28794 TIP3     3815     TIP3     H1       HT       0.417000       1.00800           0
     28795 TIP3     3815     TIP3     H2       HT       0.417000       1.00800           0
     28796 TIP3     3816     TIP3     OH2      OT      -0.834000       15.9994           0
     28797 TIP3     3816     TIP3     H1       HT       0.417000       1.00800           0
     28798 TIP3     3816     TIP3     H2       HT       0.417000       1.00800           0
     28799 TIP3     3817     TIP3     OH2      OT      -0.834000       15.9994           0
     28800 TIP3     3817     TIP3     H1       HT       0.417000       1.00800           0
     28801 TIP3     3817     TIP3     H2       HT       0.417000       1.00800           0
     28802 TIP3     3818     TIP3     OH2      OT      -0.834000       15.9994           0
     28803 TIP3     3818     TIP3     H1       HT       0.417000       1.00800           0
     28804 TIP3     3818     TIP3     H2       HT       0.417000       1.00800           0
     28805 TIP3     3819     TIP3     OH2      OT      -0.834000       15.9994           0
     28806 TIP3     3819     TIP3     H1       HT       0.417000       1.00800           0
     28807 TIP3     3819     TIP3     H2       HT       0.417000       1.00800           0
     28808 TIP3     3820     TIP3     OH2      OT      -0.834000       15.9994           0
     28809 TIP3     3820     TIP3     H1       HT       0.417000       1.00800           0
     28810 TIP3     3820     TIP3     H2       HT       0.417000       1.00800           0
     28811 TIP3     3821     TIP3     OH2      OT      -0.834000       15.9994           0
     28812 TIP3     3821     TIP3     H1       HT       0.417000       1.00800           0
     28813 TIP3     3821     TIP3     H2       HT       0.417000       1.00800           0
     28814 TIP3     3822     TIP3     OH2      OT      -0.834000       15.9994           0
     28815 TIP3     3822     TIP3     H1       HT       0.417000       1.00800           0
     28816 TIP3     3822     TIP3     H2       HT       0.417000       1.00800           0
     28817 TIP3     3823     TIP3     OH2      OT      -0.834000       15.9994           0
     28818 TIP3     3823     TIP3     H1       HT       0.417000       1.00800           0
     28819 TIP3     3823     TIP3     H2       HT       0.417000       1.00800           0
     28820 TIP3     3824     TIP3     OH2      OT      -0.834000       15.9994           0
     28821 TIP3     3824     TIP3     H1       HT       0.417000       1.00800           0
     28822 TIP3     3824     TIP3     H2       HT       0.417000       1.00800           0
     28823 TIP3     3825     TIP3     OH2      OT      -0.834000       15.9994           0
     28824 TIP3     3825     TIP3     H1       HT       0.417000       1.00800           0
     28825 TIP3     3825     TIP3     H2       HT       0.417000       1.00800           0
     28826 TIP3     3826     TIP3     OH2      OT      -0.834000       15.9994           0
     28827 TIP3     3826     TIP3     H1       HT       0.417000       1.00800           0
     28828 TIP3     3826     TIP3     H2       HT       0.417000       1.00800           0
     28829 TIP3     3827     TIP3     OH2      OT      -0.834000       15.9994           0
     28830 TIP3     3827     TIP3     H1       HT       0.417000       1.00800           0
     28831 TIP3     3827     TIP3     H2       HT       0.417000       1.00800           0
     28832 TIP3     3828     TIP3     OH2      OT      -0.834000       15.9994           0
     28833 TIP3     3828     TIP3     H1       HT       0.417000       1.00800           0
     28834 TIP3     3828     TIP3     H2       HT       0.417000       1.00800           0
     28835 TIP3     3829     TIP3     OH2      OT      -0.834000       15.9994           0
     28836 TIP3     3829     TIP3     H1       HT       0.417000       1.00800           0
     28837 TIP3     3829     TIP3     H2       HT       0.417000       1.00800           0
     28838 TIP3     3830     TIP3     OH2      OT      -0.834000       15.9994           0
     28839 TIP3     3830     TIP3     H1       HT       0.417000       1.00800           0
     28840 TIP3     3830     TIP3     H2       HT       0.417000       1.00800           0
     28841 TIP3     3831     TIP3     OH2      OT      -0.834000       15.9994           0
     28842 TIP3     3831     TIP3     H1       HT       0.417000       1.00800           0
     28843 TIP3     3831     TIP3     H2       HT       0.417000       1.00800           0
     28844 TIP3     3832     TIP3     OH2      OT      -0.834000       15.9994           0
     28845 TIP3     3832     TIP3     H1       HT       0.417000       1.00800           0
     28846 TIP3     3832     TIP3     H2       HT       0.417000       1.00800           0
     28847 TIP3     3833     TIP3     OH2      OT      -0.834000       15.9994           0
     28848 TIP3     3833     TIP3     H1       HT       0.417000       1.00800           0
     28849 TIP3     3833     TIP3     H2       HT       0.417000       1.00800           0
     28850 TIP3     3834     TIP3     OH2      OT      -0.834000       15.9994           0
     28851 TIP3     3834     TIP3     H1       HT       0.417000       1.00800           0
     28852 TIP3     3834     TIP3     H2       HT       0.417000       1.00800           0
     28853 TIP3     3835     TIP3     OH2      OT      -0.834000       15.9994           0
     28854 TIP3     3835     TIP3     H1       HT       0.417000       1.00800           0
     28855 TIP3     3835     TIP3     H2       HT       0.417000       1.00800           0
     28856 TIP3     3836     TIP3     OH2      OT      -0.834000       15.9994           0
     28857 TIP3     3836     TIP3     H1       HT       0.417000       1.00800           0
     28858 TIP3     3836     TIP3     H2       HT       0.417000       1.00800           0
     28859 TIP3     3837     TIP3     OH2      OT      -0.834000       15.9994           0
     28860 TIP3     3837     TIP3     H1       HT       0.417000       1.00800           0
     28861 TIP3     3837     TIP3     H2       HT       0.417000       1.00800           0
     28862 TIP3     3838     TIP3     OH2      OT      -0.834000       15.9994           0
     28863 TIP3     3838     TIP3     H1       HT       0.417000       1.00800           0
     28864 TIP3     3838     TIP3     H2       HT       0.417000       1.00800           0
     28865 TIP3     3839     TIP3     OH2      OT      -0.834000       15.9994           0
     28866 TIP3     3839     TIP3     H1       HT       0.417000       1.00800           0
     28867 TIP3     3839     TIP3     H2       HT       0.417000       1.00800           0
     28868 TIP3     3840     TIP3     OH2      OT      -0.834000       15.9994           0
     28869 TIP3     3840     TIP3     H1       HT       0.417000       1.00800           0
     28870 TIP3     3840     TIP3     H2       HT       0.417000       1.00800           0
     28871 TIP3     3841     TIP3     OH2      OT      -0.834000       15.9994           0
     28872 TIP3     3841     TIP3     H1       HT       0.417000       1.00800           0
     28873 TIP3     3841     TIP3     H2       HT       0.417000       1.00800           0
     28874 TIP3     3842     TIP3     OH2      OT      -0.834000       15.9994           0
     28875 TIP3     3842     TIP3     H1       HT       0.417000       1.00800           0
     28876 TIP3     3842     TIP3     H2       HT       0.417000       1.00800           0
     28877 TIP3     3843     TIP3     OH2      OT      -0.834000       15.9994           0
     28878 TIP3     3843     TIP3     H1       HT       0.417000       1.00800           0
     28879 TIP3     3843     TIP3     H2       HT       0.417000       1.00800           0
     28880 TIP3     3844     TIP3     OH2      OT      -0.834000       15.9994           0
     28881 TIP3     3844     TIP3     H1       HT       0.417000       1.00800           0
     28882 TIP3     3844     TIP3     H2       HT       0.417000       1.00800           0
     28883 TIP3     3845     TIP3     OH2      OT      -0.834000       15.9994           0
     28884 TIP3     3845     TIP3     H1       HT       0.417000       1.00800           0
     28885 TIP3     3845     TIP3     H2       HT       0.417000       1.00800           0
     28886 TIP3     3846     TIP3     OH2      OT      -0.834000       15.9994           0
     28887 TIP3     3846     TIP3     H1       HT       0.417000       1.00800           0
     28888 TIP3     3846     TIP3     H2       HT       0.417000       1.00800           0
     28889 TIP3     3847     TIP3     OH2      OT      -0.834000       15.9994           0
     28890 TIP3     3847     TIP3     H1       HT       0.417000       1.00800           0
     28891 TIP3     3847     TIP3     H2       HT       0.417000       1.00800           0
     28892 TIP3     3848     TIP3     OH2      OT      -0.834000       15.9994           0
     28893 TIP3     3848     TIP3     H1       HT       0.417000       1.00800           0
     28894 TIP3     3848     TIP3     H2       HT       0.417000       1.00800           0
     28895 TIP3     3849     TIP3     OH2      OT      -0.834000       15.9994           0
     28896 TIP3     3849     TIP3     H1       HT       0.417000       1.00800           0
     28897 TIP3     3849     TIP3     H2       HT       0.417000       1.00800           0
     28898 TIP3     3850     TIP3     OH2      OT      -0.834000       15.9994           0
     28899 TIP3     3850     TIP3     H1       HT       0.417000       1.00800           0
     28900 TIP3     3850     TIP3     H2       HT       0.417000       1.00800           0
     28901 TIP3     3851     TIP3     OH2      OT      -0.834000       15.9994           0
     28902 TIP3     3851     TIP3     H1       HT       0.417000       1.00800           0
     28903 TIP3     3851     TIP3     H2       HT       0.417000       1.00800           0
     28904 TIP3     3852     TIP3     OH2      OT      -0.834000       15.9994           0
     28905 TIP3     3852     TIP3     H1       HT       0.417000       1.00800           0
     28906 TIP3     3852     TIP3     H2       HT       0.417000       1.00800           0
     28907 TIP3     3853     TIP3     OH2      OT      -0.834000       15.9994           0
     28908 TIP3     3853     TIP3     H1       HT       0.417000       1.00800           0
     28909 TIP3     3853     TIP3     H2       HT       0.417000       1.00800           0
     28910 TIP3     3854     TIP3     OH2      OT      -0.834000       15.9994           0
     28911 TIP3     3854     TIP3     H1       HT       0.417000       1.00800           0
     28912 TIP3     3854     TIP3     H2       HT       0.417000       1.00800           0
     28913 TIP3     3855     TIP3     OH2      OT      -0.834000       15.9994           0
     28914 TIP3     3855     TIP3     H1       HT       0.417000       1.00800           0
     28915 TIP3     3855     TIP3     H2       HT       0.417000       1.00800           0
     28916 TIP3     3856     TIP3     OH2      OT      -0.834000       15.9994           0
     28917 TIP3     3856     TIP3     H1       HT       0.417000       1.00800           0
     28918 TIP3     3856     TIP3     H2       HT       0.417000       1.00800           0
     28919 TIP3     3857     TIP3     OH2      OT      -0.834000       15.9994           0
     28920 TIP3     3857     TIP3     H1       HT       0.417000       1.00800           0
     28921 TIP3     3857     TIP3     H2       HT       0.417000       1.00800           0
     28922 TIP3     3858     TIP3     OH2      OT      -0.834000       15.9994           0
     28923 TIP3     3858     TIP3     H1       HT       0.417000       1.00800           0
     28924 TIP3     3858     TIP3     H2       HT       0.417000       1.00800           0
     28925 TIP3     3859     TIP3     OH2      OT      -0.834000       15.9994           0
     28926 TIP3     3859     TIP3     H1       HT       0.417000       1.00800           0
     28927 TIP3     3859     TIP3     H2       HT       0.417000       1.00800           0
     28928 TIP3     3860     TIP3     OH2      OT      -0.834000       15.9994           0
     28929 TIP3     3860     TIP3     H1       HT       0.417000       1.00800           0
     28930 TIP3     3860     TIP3     H2       HT       0.417000       1.00800           0
     28931 TIP3     3861     TIP3     OH2      OT      -0.834000       15.9994           0
     28932 TIP3     3861     TIP3     H1       HT       0.417000       1.00800           0
     28933 TIP3     3861     TIP3     H2       HT       0.417000       1.00800           0
     28934 TIP3     3862     TIP3     OH2      OT      -0.834000       15.9994           0
     28935 TIP3     3862     TIP3     H1       HT       0.417000       1.00800           0
     28936 TIP3     3862     TIP3     H2       HT       0.417000       1.00800           0
     28937 TIP3     3863     TIP3     OH2      OT      -0.834000       15.9994           0
     28938 TIP3     3863     TIP3     H1       HT       0.417000       1.00800           0
     28939 TIP3     3863     TIP3     H2       HT       0.417000       1.00800           0
     28940 TIP3     3864     TIP3     OH2      OT      -0.834000       15.9994           0
     28941 TIP3     3864     TIP3     H1       HT       0.417000       1.00800           0
     28942 TIP3     3864     TIP3     H2       HT       0.417000       1.00800           0
     28943 TIP3     3865     TIP3     OH2      OT      -0.834000       15.9994           0
     28944 TIP3     3865     TIP3     H1       HT       0.417000       1.00800           0
     28945 TIP3     3865     TIP3     H2       HT       0.417000       1.00800           0
     28946 TIP3     3866     TIP3     OH2      OT      -0.834000       15.9994           0
     28947 TIP3     3866     TIP3     H1       HT       0.417000       1.00800           0
     28948 TIP3     3866     TIP3     H2       HT       0.417000       1.00800           0
     28949 TIP3     3867     TIP3     OH2      OT      -0.834000       15.9994           0
     28950 TIP3     3867     TIP3     H1       HT       0.417000       1.00800           0
     28951 TIP3     3867     TIP3     H2       HT       0.417000       1.00800           0
     28952 TIP3     3868     TIP3     OH2      OT      -0.834000       15.9994           0
     28953 TIP3     3868     TIP3     H1       HT       0.417000       1.00800           0
     28954 TIP3     3868     TIP3     H2       HT       0.417000       1.00800           0
     28955 TIP3     3869     TIP3     OH2      OT      -0.834000       15.9994           0
     28956 TIP3     3869     TIP3     H1       HT       0.417000       1.00800           0
     28957 TIP3     3869     TIP3     H2       HT       0.417000       1.00800           0
     28958 TIP3     3870     TIP3     OH2      OT      -0.834000       15.9994           0
     28959 TIP3     3870     TIP3     H1       HT       0.417000       1.00800           0
     28960 TIP3     3870     TIP3     H2       HT       0.417000       1.00800           0
     28961 TIP3     3871     TIP3     OH2      OT      -0.834000       15.9994           0
     28962 TIP3     3871     TIP3     H1       HT       0.417000       1.00800           0
     28963 TIP3     3871     TIP3     H2       HT       0.417000       1.00800           0
     28964 TIP3     3872     TIP3     OH2      OT      -0.834000       15.9994           0
     28965 TIP3     3872     TIP3     H1       HT       0.417000       1.00800           0
     28966 TIP3     3872     TIP3     H2       HT       0.417000       1.00800           0
     28967 TIP3     3873     TIP3     OH2      OT      -0.834000       15.9994           0
     28968 TIP3     3873     TIP3     H1       HT       0.417000       1.00800           0
     28969 TIP3     3873     TIP3     H2       HT       0.417000       1.00800           0
     28970 TIP3     3874     TIP3     OH2      OT      -0.834000       15.9994           0
     28971 TIP3     3874     TIP3     H1       HT       0.417000       1.00800           0
     28972 TIP3     3874     TIP3     H2       HT       0.417000       1.00800           0
     28973 TIP3     3875     TIP3     OH2      OT      -0.834000       15.9994           0
     28974 TIP3     3875     TIP3     H1       HT       0.417000       1.00800           0
     28975 TIP3     3875     TIP3     H2       HT       0.417000       1.00800           0
     28976 TIP3     3876     TIP3     OH2      OT      -0.834000       15.9994           0
     28977 TIP3     3876     TIP3     H1       HT       0.417000       1.00800           0
     28978 TIP3     3876     TIP3     H2       HT       0.417000       1.00800           0
     28979 TIP3     3877     TIP3     OH2      OT      -0.834000       15.9994           0
     28980 TIP3     3877     TIP3     H1       HT       0.417000       1.00800           0
     28981 TIP3     3877     TIP3     H2       HT       0.417000       1.00800           0
     28982 TIP3     3878     TIP3     OH2      OT      -0.834000       15.9994           0
     28983 TIP3     3878     TIP3     H1       HT       0.417000       1.00800           0
     28984 TIP3     3878     TIP3     H2       HT       0.417000       1.00800           0
     28985 TIP3     3879     TIP3     OH2      OT      -0.834000       15.9994           0
     28986 TIP3     3879     TIP3     H1       HT       0.417000       1.00800           0
     28987 TIP3     3879     TIP3     H2       HT       0.417000       1.00800           0
     28988 TIP3     3880     TIP3     OH2      OT      -0.834000       15.9994           0
     28989 TIP3     3880     TIP3     H1       HT       0.417000       1.00800           0
     28990 TIP3     3880     TIP3     H2       HT       0.417000       1.00800           0
     28991 TIP3     3881     TIP3     OH2      OT      -0.834000       15.9994           0
     28992 TIP3     3881     TIP3     H1       HT       0.417000       1.00800           0
     28993 TIP3     3881     TIP3     H2       HT       0.417000       1.00800           0
     28994 TIP3     3882     TIP3     OH2      OT      -0.834000       15.9994           0
     28995 TIP3     3882     TIP3     H1       HT       0.417000       1.00800           0
     28996 TIP3     3882     TIP3     H2       HT       0.417000       1.00800           0
     28997 TIP3     3883     TIP3     OH2      OT      -0.834000       15.9994           0
     28998 TIP3     3883     TIP3     H1       HT       0.417000       1.00800           0
     28999 TIP3     3883     TIP3     H2       HT       0.417000       1.00800           0
     29000 TIP3     3884     TIP3     OH2      OT      -0.834000       15.9994           0
     29001 TIP3     3884     TIP3     H1       HT       0.417000       1.00800           0
     29002 TIP3     3884     TIP3     H2       HT       0.417000       1.00800           0
     29003 TIP3     3885     TIP3     OH2      OT      -0.834000       15.9994           0
     29004 TIP3     3885     TIP3     H1       HT       0.417000       1.00800           0
     29005 TIP3     3885     TIP3     H2       HT       0.417000       1.00800           0
     29006 TIP3     3886     TIP3     OH2      OT      -0.834000       15.9994           0
     29007 TIP3     3886     TIP3     H1       HT       0.417000       1.00800           0
     29008 TIP3     3886     TIP3     H2       HT       0.417000       1.00800           0
     29009 TIP3     3887     TIP3     OH2      OT      -0.834000       15.9994           0
     29010 TIP3     3887     TIP3     H1       HT       0.417000       1.00800           0
     29011 TIP3     3887     TIP3     H2       HT       0.417000       1.00800           0
     29012 TIP3     3888     TIP3     OH2      OT      -0.834000       15.9994           0
     29013 TIP3     3888     TIP3     H1       HT       0.417000       1.00800           0
     29014 TIP3     3888     TIP3     H2       HT       0.417000       1.00800           0
     29015 TIP3     3889     TIP3     OH2      OT      -0.834000       15.9994           0
     29016 TIP3     3889     TIP3     H1       HT       0.417000       1.00800           0
     29017 TIP3     3889     TIP3     H2       HT       0.417000       1.00800           0
     29018 TIP3     3890     TIP3     OH2      OT      -0.834000       15.9994           0
     29019 TIP3     3890     TIP3     H1       HT       0.417000       1.00800           0
     29020 TIP3     3890     TIP3     H2       HT       0.417000       1.00800           0
     29021 TIP3     3891     TIP3     OH2      OT      -0.834000       15.9994           0
     29022 TIP3     3891     TIP3     H1       HT       0.417000       1.00800           0
     29023 TIP3     3891     TIP3     H2       HT       0.417000       1.00800           0
     29024 TIP3     3892     TIP3     OH2      OT      -0.834000       15.9994           0
     29025 TIP3     3892     TIP3     H1       HT       0.417000       1.00800           0
     29026 TIP3     3892     TIP3     H2       HT       0.417000       1.00800           0
     29027 TIP3     3893     TIP3     OH2      OT      -0.834000       15.9994           0
     29028 TIP3     3893     TIP3     H1       HT       0.417000       1.00800           0
     29029 TIP3     3893     TIP3     H2       HT       0.417000       1.00800           0
     29030 TIP3     3894     TIP3     OH2      OT      -0.834000       15.9994           0
     29031 TIP3     3894     TIP3     H1       HT       0.417000       1.00800           0
     29032 TIP3     3894     TIP3     H2       HT       0.417000       1.00800           0
     29033 TIP3     3895     TIP3     OH2      OT      -0.834000       15.9994           0
     29034 TIP3     3895     TIP3     H1       HT       0.417000       1.00800           0
     29035 TIP3     3895     TIP3     H2       HT       0.417000       1.00800           0
     29036 TIP3     3896     TIP3     OH2      OT      -0.834000       15.9994           0
     29037 TIP3     3896     TIP3     H1       HT       0.417000       1.00800           0
     29038 TIP3     3896     TIP3     H2       HT       0.417000       1.00800           0
     29039 TIP3     3897     TIP3     OH2      OT      -0.834000       15.9994           0
     29040 TIP3     3897     TIP3     H1       HT       0.417000       1.00800           0
     29041 TIP3     3897     TIP3     H2       HT       0.417000       1.00800           0
     29042 TIP3     3898     TIP3     OH2      OT      -0.834000       15.9994           0
     29043 TIP3     3898     TIP3     H1       HT       0.417000       1.00800           0
     29044 TIP3     3898     TIP3     H2       HT       0.417000       1.00800           0
     29045 TIP3     3899     TIP3     OH2      OT      -0.834000       15.9994           0
     29046 TIP3     3899     TIP3     H1       HT       0.417000       1.00800           0
     29047 TIP3     3899     TIP3     H2       HT       0.417000       1.00800           0
     29048 TIP3     3900     TIP3     OH2      OT      -0.834000       15.9994           0
     29049 TIP3     3900     TIP3     H1       HT       0.417000       1.00800           0
     29050 TIP3     3900     TIP3     H2       HT       0.417000       1.00800           0
     29051 TIP3     3901     TIP3     OH2      OT      -0.834000       15.9994           0
     29052 TIP3     3901     TIP3     H1       HT       0.417000       1.00800           0
     29053 TIP3     3901     TIP3     H2       HT       0.417000       1.00800           0
     29054 TIP3     3902     TIP3     OH2      OT      -0.834000       15.9994           0
     29055 TIP3     3902     TIP3     H1       HT       0.417000       1.00800           0
     29056 TIP3     3902     TIP3     H2       HT       0.417000       1.00800           0
     29057 TIP3     3903     TIP3     OH2      OT      -0.834000       15.9994           0
     29058 TIP3     3903     TIP3     H1       HT       0.417000       1.00800           0
     29059 TIP3     3903     TIP3     H2       HT       0.417000       1.00800           0
     29060 TIP3     3904     TIP3     OH2      OT      -0.834000       15.9994           0
     29061 TIP3     3904     TIP3     H1       HT       0.417000       1.00800           0
     29062 TIP3     3904     TIP3     H2       HT       0.417000       1.00800           0
     29063 TIP3     3905     TIP3     OH2      OT      -0.834000       15.9994           0
     29064 TIP3     3905     TIP3     H1       HT       0.417000       1.00800           0
     29065 TIP3     3905     TIP3     H2       HT       0.417000       1.00800           0
     29066 TIP3     3906     TIP3     OH2      OT      -0.834000       15.9994           0
     29067 TIP3     3906     TIP3     H1       HT       0.417000       1.00800           0
     29068 TIP3     3906     TIP3     H2       HT       0.417000       1.00800           0
     29069 TIP3     3907     TIP3     OH2      OT      -0.834000       15.9994           0
     29070 TIP3     3907     TIP3     H1       HT       0.417000       1.00800           0
     29071 TIP3     3907     TIP3     H2       HT       0.417000       1.00800           0
     29072 TIP3     3908     TIP3     OH2      OT      -0.834000       15.9994           0
     29073 TIP3     3908     TIP3     H1       HT       0.417000       1.00800           0
     29074 TIP3     3908     TIP3     H2       HT       0.417000       1.00800           0
     29075 TIP3     3909     TIP3     OH2      OT      -0.834000       15.9994           0
     29076 TIP3     3909     TIP3     H1       HT       0.417000       1.00800           0
     29077 TIP3     3909     TIP3     H2       HT       0.417000       1.00800           0
     29078 TIP3     3910     TIP3     OH2      OT      -0.834000       15.9994           0
     29079 TIP3     3910     TIP3     H1       HT       0.417000       1.00800           0
     29080 TIP3     3910     TIP3     H2       HT       0.417000       1.00800           0
     29081 TIP3     3911     TIP3     OH2      OT      -0.834000       15.9994           0
     29082 TIP3     3911     TIP3     H1       HT       0.417000       1.00800           0
     29083 TIP3     3911     TIP3     H2       HT       0.417000       1.00800           0
     29084 TIP3     3912     TIP3     OH2      OT      -0.834000       15.9994           0
     29085 TIP3     3912     TIP3     H1       HT       0.417000       1.00800           0
     29086 TIP3     3912     TIP3     H2       HT       0.417000       1.00800           0
     29087 TIP3     3913     TIP3     OH2      OT      -0.834000       15.9994           0
     29088 TIP3     3913     TIP3     H1       HT       0.417000       1.00800           0
     29089 TIP3     3913     TIP3     H2       HT       0.417000       1.00800           0
     29090 TIP3     3914     TIP3     OH2      OT      -0.834000       15.9994           0
     29091 TIP3     3914     TIP3     H1       HT       0.417000       1.00800           0
     29092 TIP3     3914     TIP3     H2       HT       0.417000       1.00800           0
     29093 TIP3     3915     TIP3     OH2      OT      -0.834000       15.9994           0
     29094 TIP3     3915     TIP3     H1       HT       0.417000       1.00800           0
     29095 TIP3     3915     TIP3     H2       HT       0.417000       1.00800           0
     29096 TIP3     3916     TIP3     OH2      OT      -0.834000       15.9994           0
     29097 TIP3     3916     TIP3     H1       HT       0.417000       1.00800           0
     29098 TIP3     3916     TIP3     H2       HT       0.417000       1.00800           0
     29099 TIP3     3917     TIP3     OH2      OT      -0.834000       15.9994           0
     29100 TIP3     3917     TIP3     H1       HT       0.417000       1.00800           0
     29101 TIP3     3917     TIP3     H2       HT       0.417000       1.00800           0
     29102 TIP3     3918     TIP3     OH2      OT      -0.834000       15.9994           0
     29103 TIP3     3918     TIP3     H1       HT       0.417000       1.00800           0
     29104 TIP3     3918     TIP3     H2       HT       0.417000       1.00800           0
     29105 TIP3     3919     TIP3     OH2      OT      -0.834000       15.9994           0
     29106 TIP3     3919     TIP3     H1       HT       0.417000       1.00800           0
     29107 TIP3     3919     TIP3     H2       HT       0.417000       1.00800           0
     29108 TIP3     3920     TIP3     OH2      OT      -0.834000       15.9994           0
     29109 TIP3     3920     TIP3     H1       HT       0.417000       1.00800           0
     29110 TIP3     3920     TIP3     H2       HT       0.417000       1.00800           0
     29111 TIP3     3921     TIP3     OH2      OT      -0.834000       15.9994           0
     29112 TIP3     3921     TIP3     H1       HT       0.417000       1.00800           0
     29113 TIP3     3921     TIP3     H2       HT       0.417000       1.00800           0
     29114 TIP3     3922     TIP3     OH2      OT      -0.834000       15.9994           0
     29115 TIP3     3922     TIP3     H1       HT       0.417000       1.00800           0
     29116 TIP3     3922     TIP3     H2       HT       0.417000       1.00800           0
     29117 TIP3     3923     TIP3     OH2      OT      -0.834000       15.9994           0
     29118 TIP3     3923     TIP3     H1       HT       0.417000       1.00800           0
     29119 TIP3     3923     TIP3     H2       HT       0.417000       1.00800           0
     29120 TIP3     3924     TIP3     OH2      OT      -0.834000       15.9994           0
     29121 TIP3     3924     TIP3     H1       HT       0.417000       1.00800           0
     29122 TIP3     3924     TIP3     H2       HT       0.417000       1.00800           0
     29123 TIP3     3925     TIP3     OH2      OT      -0.834000       15.9994           0
     29124 TIP3     3925     TIP3     H1       HT       0.417000       1.00800           0
     29125 TIP3     3925     TIP3     H2       HT       0.417000       1.00800           0
     29126 TIP3     3926     TIP3     OH2      OT      -0.834000       15.9994           0
     29127 TIP3     3926     TIP3     H1       HT       0.417000       1.00800           0
     29128 TIP3     3926     TIP3     H2       HT       0.417000       1.00800           0
     29129 TIP3     3927     TIP3     OH2      OT      -0.834000       15.9994           0
     29130 TIP3     3927     TIP3     H1       HT       0.417000       1.00800           0
     29131 TIP3     3927     TIP3     H2       HT       0.417000       1.00800           0
     29132 TIP3     3928     TIP3     OH2      OT      -0.834000       15.9994           0
     29133 TIP3     3928     TIP3     H1       HT       0.417000       1.00800           0
     29134 TIP3     3928     TIP3     H2       HT       0.417000       1.00800           0
     29135 TIP3     3929     TIP3     OH2      OT      -0.834000       15.9994           0
     29136 TIP3     3929     TIP3     H1       HT       0.417000       1.00800           0
     29137 TIP3     3929     TIP3     H2       HT       0.417000       1.00800           0
     29138 TIP3     3930     TIP3     OH2      OT      -0.834000       15.9994           0
     29139 TIP3     3930     TIP3     H1       HT       0.417000       1.00800           0
     29140 TIP3     3930     TIP3     H2       HT       0.417000       1.00800           0
     29141 TIP3     3931     TIP3     OH2      OT      -0.834000       15.9994           0
     29142 TIP3     3931     TIP3     H1       HT       0.417000       1.00800           0
     29143 TIP3     3931     TIP3     H2       HT       0.417000       1.00800           0
     29144 TIP3     3932     TIP3     OH2      OT      -0.834000       15.9994           0
     29145 TIP3     3932     TIP3     H1       HT       0.417000       1.00800           0
     29146 TIP3     3932     TIP3     H2       HT       0.417000       1.00800           0
     29147 TIP3     3933     TIP3     OH2      OT      -0.834000       15.9994           0
     29148 TIP3     3933     TIP3     H1       HT       0.417000       1.00800           0
     29149 TIP3     3933     TIP3     H2       HT       0.417000       1.00800           0
     29150 TIP3     3934     TIP3     OH2      OT      -0.834000       15.9994           0
     29151 TIP3     3934     TIP3     H1       HT       0.417000       1.00800           0
     29152 TIP3     3934     TIP3     H2       HT       0.417000       1.00800           0
     29153 TIP3     3935     TIP3     OH2      OT      -0.834000       15.9994           0
     29154 TIP3     3935     TIP3     H1       HT       0.417000       1.00800           0
     29155 TIP3     3935     TIP3     H2       HT       0.417000       1.00800           0
     29156 TIP3     3936     TIP3     OH2      OT      -0.834000       15.9994           0
     29157 TIP3     3936     TIP3     H1       HT       0.417000       1.00800           0
     29158 TIP3     3936     TIP3     H2       HT       0.417000       1.00800           0
     29159 TIP3     3937     TIP3     OH2      OT      -0.834000       15.9994           0
     29160 TIP3     3937     TIP3     H1       HT       0.417000       1.00800           0
     29161 TIP3     3937     TIP3     H2       HT       0.417000       1.00800           0
     29162 TIP3     3938     TIP3     OH2      OT      -0.834000       15.9994           0
     29163 TIP3     3938     TIP3     H1       HT       0.417000       1.00800           0
     29164 TIP3     3938     TIP3     H2       HT       0.417000       1.00800           0
     29165 TIP3     3939     TIP3     OH2      OT      -0.834000       15.9994           0
     29166 TIP3     3939     TIP3     H1       HT       0.417000       1.00800           0
     29167 TIP3     3939     TIP3     H2       HT       0.417000       1.00800           0
     29168 TIP3     3940     TIP3     OH2      OT      -0.834000       15.9994           0
     29169 TIP3     3940     TIP3     H1       HT       0.417000       1.00800           0
     29170 TIP3     3940     TIP3     H2       HT       0.417000       1.00800           0
     29171 TIP3     3941     TIP3     OH2      OT      -0.834000       15.9994           0
     29172 TIP3     3941     TIP3     H1       HT       0.417000       1.00800           0
     29173 TIP3     3941     TIP3     H2       HT       0.417000       1.00800           0
     29174 TIP3     3942     TIP3     OH2      OT      -0.834000       15.9994           0
     29175 TIP3     3942     TIP3     H1       HT       0.417000       1.00800           0
     29176 TIP3     3942     TIP3     H2       HT       0.417000       1.00800           0
     29177 TIP3     3943     TIP3     OH2      OT      -0.834000       15.9994           0
     29178 TIP3     3943     TIP3     H1       HT       0.417000       1.00800           0
     29179 TIP3     3943     TIP3     H2       HT       0.417000       1.00800           0
     29180 TIP3     3944     TIP3     OH2      OT      -0.834000       15.9994           0
     29181 TIP3     3944     TIP3     H1       HT       0.417000       1.00800           0
     29182 TIP3     3944     TIP3     H2       HT       0.417000       1.00800           0
     29183 TIP3     3945     TIP3     OH2      OT      -0.834000       15.9994           0
     29184 TIP3     3945     TIP3     H1       HT       0.417000       1.00800           0
     29185 TIP3     3945     TIP3     H2       HT       0.417000       1.00800           0
     29186 TIP3     3946     TIP3     OH2      OT      -0.834000       15.9994           0
     29187 TIP3     3946     TIP3     H1       HT       0.417000       1.00800           0
     29188 TIP3     3946     TIP3     H2       HT       0.417000       1.00800           0
     29189 TIP3     3947     TIP3     OH2      OT      -0.834000       15.9994           0
     29190 TIP3     3947     TIP3     H1       HT       0.417000       1.00800           0
     29191 TIP3     3947     TIP3     H2       HT       0.417000       1.00800           0
     29192 TIP3     3948     TIP3     OH2      OT      -0.834000       15.9994           0
     29193 TIP3     3948     TIP3     H1       HT       0.417000       1.00800           0
     29194 TIP3     3948     TIP3     H2       HT       0.417000       1.00800           0
     29195 TIP3     3949     TIP3     OH2      OT      -0.834000       15.9994           0
     29196 TIP3     3949     TIP3     H1       HT       0.417000       1.00800           0
     29197 TIP3     3949     TIP3     H2       HT       0.417000       1.00800           0
     29198 TIP3     3950     TIP3     OH2      OT      -0.834000       15.9994           0
     29199 TIP3     3950     TIP3     H1       HT       0.417000       1.00800           0
     29200 TIP3     3950     TIP3     H2       HT       0.417000       1.00800           0
     29201 TIP3     3951     TIP3     OH2      OT      -0.834000       15.9994           0
     29202 TIP3     3951     TIP3     H1       HT       0.417000       1.00800           0
     29203 TIP3     3951     TIP3     H2       HT       0.417000       1.00800           0
     29204 TIP3     3952     TIP3     OH2      OT      -0.834000       15.9994           0
     29205 TIP3     3952     TIP3     H1       HT       0.417000       1.00800           0
     29206 TIP3     3952     TIP3     H2       HT       0.417000       1.00800           0
     29207 TIP3     3953     TIP3     OH2      OT      -0.834000       15.9994           0
     29208 TIP3     3953     TIP3     H1       HT       0.417000       1.00800           0
     29209 TIP3     3953     TIP3     H2       HT       0.417000       1.00800           0
     29210 TIP3     3954     TIP3     OH2      OT      -0.834000       15.9994           0
     29211 TIP3     3954     TIP3     H1       HT       0.417000       1.00800           0
     29212 TIP3     3954     TIP3     H2       HT       0.417000       1.00800           0
     29213 TIP3     3955     TIP3     OH2      OT      -0.834000       15.9994           0
     29214 TIP3     3955     TIP3     H1       HT       0.417000       1.00800           0
     29215 TIP3     3955     TIP3     H2       HT       0.417000       1.00800           0
     29216 TIP3     3956     TIP3     OH2      OT      -0.834000       15.9994           0
     29217 TIP3     3956     TIP3     H1       HT       0.417000       1.00800           0
     29218 TIP3     3956     TIP3     H2       HT       0.417000       1.00800           0
     29219 TIP3     3957     TIP3     OH2      OT      -0.834000       15.9994           0
     29220 TIP3     3957     TIP3     H1       HT       0.417000       1.00800           0
     29221 TIP3     3957     TIP3     H2       HT       0.417000       1.00800           0
     29222 TIP3     3958     TIP3     OH2      OT      -0.834000       15.9994           0
     29223 TIP3     3958     TIP3     H1       HT       0.417000       1.00800           0
     29224 TIP3     3958     TIP3     H2       HT       0.417000       1.00800           0
     29225 TIP3     3959     TIP3     OH2      OT      -0.834000       15.9994           0
     29226 TIP3     3959     TIP3     H1       HT       0.417000       1.00800           0
     29227 TIP3     3959     TIP3     H2       HT       0.417000       1.00800           0
     29228 TIP3     3960     TIP3     OH2      OT      -0.834000       15.9994           0
     29229 TIP3     3960     TIP3     H1       HT       0.417000       1.00800           0
     29230 TIP3     3960     TIP3     H2       HT       0.417000       1.00800           0
     29231 TIP3     3961     TIP3     OH2      OT      -0.834000       15.9994           0
     29232 TIP3     3961     TIP3     H1       HT       0.417000       1.00800           0
     29233 TIP3     3961     TIP3     H2       HT       0.417000       1.00800           0
     29234 TIP3     3962     TIP3     OH2      OT      -0.834000       15.9994           0
     29235 TIP3     3962     TIP3     H1       HT       0.417000       1.00800           0
     29236 TIP3     3962     TIP3     H2       HT       0.417000       1.00800           0
     29237 TIP3     3963     TIP3     OH2      OT      -0.834000       15.9994           0
     29238 TIP3     3963     TIP3     H1       HT       0.417000       1.00800           0
     29239 TIP3     3963     TIP3     H2       HT       0.417000       1.00800           0
     29240 TIP3     3964     TIP3     OH2      OT      -0.834000       15.9994           0
     29241 TIP3     3964     TIP3     H1       HT       0.417000       1.00800           0
     29242 TIP3     3964     TIP3     H2       HT       0.417000       1.00800           0
     29243 TIP3     3965     TIP3     OH2      OT      -0.834000       15.9994           0
     29244 TIP3     3965     TIP3     H1       HT       0.417000       1.00800           0
     29245 TIP3     3965     TIP3     H2       HT       0.417000       1.00800           0
     29246 TIP3     3966     TIP3     OH2      OT      -0.834000       15.9994           0
     29247 TIP3     3966     TIP3     H1       HT       0.417000       1.00800           0
     29248 TIP3     3966     TIP3     H2       HT       0.417000       1.00800           0
     29249 TIP3     3967     TIP3     OH2      OT      -0.834000       15.9994           0
     29250 TIP3     3967     TIP3     H1       HT       0.417000       1.00800           0
     29251 TIP3     3967     TIP3     H2       HT       0.417000       1.00800           0
     29252 TIP3     3968     TIP3     OH2      OT      -0.834000       15.9994           0
     29253 TIP3     3968     TIP3     H1       HT       0.417000       1.00800           0
     29254 TIP3     3968     TIP3     H2       HT       0.417000       1.00800           0
     29255 TIP3     3969     TIP3     OH2      OT      -0.834000       15.9994           0
     29256 TIP3     3969     TIP3     H1       HT       0.417000       1.00800           0
     29257 TIP3     3969     TIP3     H2       HT       0.417000       1.00800           0
     29258 TIP3     3970     TIP3     OH2      OT      -0.834000       15.9994           0
     29259 TIP3     3970     TIP3     H1       HT       0.417000       1.00800           0
     29260 TIP3     3970     TIP3     H2       HT       0.417000       1.00800           0
     29261 TIP3     3971     TIP3     OH2      OT      -0.834000       15.9994           0
     29262 TIP3     3971     TIP3     H1       HT       0.417000       1.00800           0
     29263 TIP3     3971     TIP3     H2       HT       0.417000       1.00800           0
     29264 TIP3     3972     TIP3     OH2      OT      -0.834000       15.9994           0
     29265 TIP3     3972     TIP3     H1       HT       0.417000       1.00800           0
     29266 TIP3     3972     TIP3     H2       HT       0.417000       1.00800           0
     29267 TIP3     3973     TIP3     OH2      OT      -0.834000       15.9994           0
     29268 TIP3     3973     TIP3     H1       HT       0.417000       1.00800           0
     29269 TIP3     3973     TIP3     H2       HT       0.417000       1.00800           0
     29270 TIP3     3974     TIP3     OH2      OT      -0.834000       15.9994           0
     29271 TIP3     3974     TIP3     H1       HT       0.417000       1.00800           0
     29272 TIP3     3974     TIP3     H2       HT       0.417000       1.00800           0
     29273 TIP3     3975     TIP3     OH2      OT      -0.834000       15.9994           0
     29274 TIP3     3975     TIP3     H1       HT       0.417000       1.00800           0
     29275 TIP3     3975     TIP3     H2       HT       0.417000       1.00800           0
     29276 TIP3     3976     TIP3     OH2      OT      -0.834000       15.9994           0
     29277 TIP3     3976     TIP3     H1       HT       0.417000       1.00800           0
     29278 TIP3     3976     TIP3     H2       HT       0.417000       1.00800           0
     29279 TIP3     3977     TIP3     OH2      OT      -0.834000       15.9994           0
     29280 TIP3     3977     TIP3     H1       HT       0.417000       1.00800           0
     29281 TIP3     3977     TIP3     H2       HT       0.417000       1.00800           0
     29282 TIP3     3978     TIP3     OH2      OT      -0.834000       15.9994           0
     29283 TIP3     3978     TIP3     H1       HT       0.417000       1.00800           0
     29284 TIP3     3978     TIP3     H2       HT       0.417000       1.00800           0
     29285 TIP3     3979     TIP3     OH2      OT      -0.834000       15.9994           0
     29286 TIP3     3979     TIP3     H1       HT       0.417000       1.00800           0
     29287 TIP3     3979     TIP3     H2       HT       0.417000       1.00800           0
     29288 TIP3     3980     TIP3     OH2      OT      -0.834000       15.9994           0
     29289 TIP3     3980     TIP3     H1       HT       0.417000       1.00800           0
     29290 TIP3     3980     TIP3     H2       HT       0.417000       1.00800           0
     29291 TIP3     3981     TIP3     OH2      OT      -0.834000       15.9994           0
     29292 TIP3     3981     TIP3     H1       HT       0.417000       1.00800           0
     29293 TIP3     3981     TIP3     H2       HT       0.417000       1.00800           0
     29294 TIP3     3982     TIP3     OH2      OT      -0.834000       15.9994           0
     29295 TIP3     3982     TIP3     H1       HT       0.417000       1.00800           0
     29296 TIP3     3982     TIP3     H2       HT       0.417000       1.00800           0
     29297 TIP3     3983     TIP3     OH2      OT      -0.834000       15.9994           0
     29298 TIP3     3983     TIP3     H1       HT       0.417000       1.00800           0
     29299 TIP3     3983     TIP3     H2       HT       0.417000       1.00800           0
     29300 TIP3     3984     TIP3     OH2      OT      -0.834000       15.9994           0
     29301 TIP3     3984     TIP3     H1       HT       0.417000       1.00800           0
     29302 TIP3     3984     TIP3     H2       HT       0.417000       1.00800           0
     29303 TIP3     3985     TIP3     OH2      OT      -0.834000       15.9994           0
     29304 TIP3     3985     TIP3     H1       HT       0.417000       1.00800           0
     29305 TIP3     3985     TIP3     H2       HT       0.417000       1.00800           0
     29306 TIP3     3986     TIP3     OH2      OT      -0.834000       15.9994           0
     29307 TIP3     3986     TIP3     H1       HT       0.417000       1.00800           0
     29308 TIP3     3986     TIP3     H2       HT       0.417000       1.00800           0
     29309 TIP3     3987     TIP3     OH2      OT      -0.834000       15.9994           0
     29310 TIP3     3987     TIP3     H1       HT       0.417000       1.00800           0
     29311 TIP3     3987     TIP3     H2       HT       0.417000       1.00800           0
     29312 TIP3     3988     TIP3     OH2      OT      -0.834000       15.9994           0
     29313 TIP3     3988     TIP3     H1       HT       0.417000       1.00800           0
     29314 TIP3     3988     TIP3     H2       HT       0.417000       1.00800           0
     29315 TIP3     3989     TIP3     OH2      OT      -0.834000       15.9994           0
     29316 TIP3     3989     TIP3     H1       HT       0.417000       1.00800           0
     29317 TIP3     3989     TIP3     H2       HT       0.417000       1.00800           0
     29318 TIP3     3990     TIP3     OH2      OT      -0.834000       15.9994           0
     29319 TIP3     3990     TIP3     H1       HT       0.417000       1.00800           0
     29320 TIP3     3990     TIP3     H2       HT       0.417000       1.00800           0
     29321 TIP3     3991     TIP3     OH2      OT      -0.834000       15.9994           0
     29322 TIP3     3991     TIP3     H1       HT       0.417000       1.00800           0
     29323 TIP3     3991     TIP3     H2       HT       0.417000       1.00800           0
     29324 TIP3     3992     TIP3     OH2      OT      -0.834000       15.9994           0
     29325 TIP3     3992     TIP3     H1       HT       0.417000       1.00800           0
     29326 TIP3     3992     TIP3     H2       HT       0.417000       1.00800           0
     29327 TIP3     3993     TIP3     OH2      OT      -0.834000       15.9994           0
     29328 TIP3     3993     TIP3     H1       HT       0.417000       1.00800           0
     29329 TIP3     3993     TIP3     H2       HT       0.417000       1.00800           0
     29330 TIP3     3994     TIP3     OH2      OT      -0.834000       15.9994           0
     29331 TIP3     3994     TIP3     H1       HT       0.417000       1.00800           0
     29332 TIP3     3994     TIP3     H2       HT       0.417000       1.00800           0
     29333 TIP3     3995     TIP3     OH2      OT      -0.834000       15.9994           0
     29334 TIP3     3995     TIP3     H1       HT       0.417000       1.00800           0
     29335 TIP3     3995     TIP3     H2       HT       0.417000       1.00800           0
     29336 TIP3     3996     TIP3     OH2      OT      -0.834000       15.9994           0
     29337 TIP3     3996     TIP3     H1       HT       0.417000       1.00800           0
     29338 TIP3     3996     TIP3     H2       HT       0.417000       1.00800           0
     29339 TIP3     3997     TIP3     OH2      OT      -0.834000       15.9994           0
     29340 TIP3     3997     TIP3     H1       HT       0.417000       1.00800           0
     29341 TIP3     3997     TIP3     H2       HT       0.417000       1.00800           0
     29342 TIP3     3998     TIP3     OH2      OT      -0.834000       15.9994           0
     29343 TIP3     3998     TIP3     H1       HT       0.417000       1.00800           0
     29344 TIP3     3998     TIP3     H2       HT       0.417000       1.00800           0
     29345 TIP3     3999     TIP3     OH2      OT      -0.834000       15.9994           0
     29346 TIP3     3999     TIP3     H1       HT       0.417000       1.00800           0
     29347 TIP3     3999     TIP3     H2       HT       0.417000       1.00800           0
     29348 TIP3     4000     TIP3     OH2      OT      -0.834000       15.9994           0
     29349 TIP3     4000     TIP3     H1       HT       0.417000       1.00800           0
     29350 TIP3     4000     TIP3     H2       HT       0.417000       1.00800           0
     29351 TIP3     4001     TIP3     OH2      OT      -0.834000       15.9994           0
     29352 TIP3     4001     TIP3     H1       HT       0.417000       1.00800           0
     29353 TIP3     4001     TIP3     H2       HT       0.417000       1.00800           0
     29354 TIP3     4002     TIP3     OH2      OT      -0.834000       15.9994           0
     29355 TIP3     4002     TIP3     H1       HT       0.417000       1.00800           0
     29356 TIP3     4002     TIP3     H2       HT       0.417000       1.00800           0
     29357 TIP3     4003     TIP3     OH2      OT      -0.834000       15.9994           0
     29358 TIP3     4003     TIP3     H1       HT       0.417000       1.00800           0
     29359 TIP3     4003     TIP3     H2       HT       0.417000       1.00800           0
     29360 TIP3     4004     TIP3     OH2      OT      -0.834000       15.9994           0
     29361 TIP3     4004     TIP3     H1       HT       0.417000       1.00800           0
     29362 TIP3     4004     TIP3     H2       HT       0.417000       1.00800           0
     29363 TIP3     4005     TIP3     OH2      OT      -0.834000       15.9994           0
     29364 TIP3     4005     TIP3     H1       HT       0.417000       1.00800           0
     29365 TIP3     4005     TIP3     H2       HT       0.417000       1.00800           0
     29366 TIP3     4006     TIP3     OH2      OT      -0.834000       15.9994           0
     29367 TIP3     4006     TIP3     H1       HT       0.417000       1.00800           0
     29368 TIP3     4006     TIP3     H2       HT       0.417000       1.00800           0
     29369 TIP3     4007     TIP3     OH2      OT      -0.834000       15.9994           0
     29370 TIP3     4007     TIP3     H1       HT       0.417000       1.00800           0
     29371 TIP3     4007     TIP3     H2       HT       0.417000       1.00800           0
     29372 TIP3     4008     TIP3     OH2      OT      -0.834000       15.9994           0
     29373 TIP3     4008     TIP3     H1       HT       0.417000       1.00800           0
     29374 TIP3     4008     TIP3     H2       HT       0.417000       1.00800           0
     29375 TIP3     4009     TIP3     OH2      OT      -0.834000       15.9994           0
     29376 TIP3     4009     TIP3     H1       HT       0.417000       1.00800           0
     29377 TIP3     4009     TIP3     H2       HT       0.417000       1.00800           0
     29378 TIP3     4010     TIP3     OH2      OT      -0.834000       15.9994           0
     29379 TIP3     4010     TIP3     H1       HT       0.417000       1.00800           0
     29380 TIP3     4010     TIP3     H2       HT       0.417000       1.00800           0
     29381 TIP3     4011     TIP3     OH2      OT      -0.834000       15.9994           0
     29382 TIP3     4011     TIP3     H1       HT       0.417000       1.00800           0
     29383 TIP3     4011     TIP3     H2       HT       0.417000       1.00800           0
     29384 TIP3     4012     TIP3     OH2      OT      -0.834000       15.9994           0
     29385 TIP3     4012     TIP3     H1       HT       0.417000       1.00800           0
     29386 TIP3     4012     TIP3     H2       HT       0.417000       1.00800           0
     29387 TIP3     4013     TIP3     OH2      OT      -0.834000       15.9994           0
     29388 TIP3     4013     TIP3     H1       HT       0.417000       1.00800           0
     29389 TIP3     4013     TIP3     H2       HT       0.417000       1.00800           0
     29390 TIP3     4014     TIP3     OH2      OT      -0.834000       15.9994           0
     29391 TIP3     4014     TIP3     H1       HT       0.417000       1.00800           0
     29392 TIP3     4014     TIP3     H2       HT       0.417000       1.00800           0
     29393 TIP3     4015     TIP3     OH2      OT      -0.834000       15.9994           0
     29394 TIP3     4015     TIP3     H1       HT       0.417000       1.00800           0
     29395 TIP3     4015     TIP3     H2       HT       0.417000       1.00800           0
     29396 TIP3     4016     TIP3     OH2      OT      -0.834000       15.9994           0
     29397 TIP3     4016     TIP3     H1       HT       0.417000       1.00800           0
     29398 TIP3     4016     TIP3     H2       HT       0.417000       1.00800           0
     29399 TIP3     4017     TIP3     OH2      OT      -0.834000       15.9994           0
     29400 TIP3     4017     TIP3     H1       HT       0.417000       1.00800           0
     29401 TIP3     4017     TIP3     H2       HT       0.417000       1.00800           0
     29402 TIP3     4018     TIP3     OH2      OT      -0.834000       15.9994           0
     29403 TIP3     4018     TIP3     H1       HT       0.417000       1.00800           0
     29404 TIP3     4018     TIP3     H2       HT       0.417000       1.00800           0
     29405 TIP3     4019     TIP3     OH2      OT      -0.834000       15.9994           0
     29406 TIP3     4019     TIP3     H1       HT       0.417000       1.00800           0
     29407 TIP3     4019     TIP3     H2       HT       0.417000       1.00800           0
     29408 TIP3     4020     TIP3     OH2      OT      -0.834000       15.9994           0
     29409 TIP3     4020     TIP3     H1       HT       0.417000       1.00800           0
     29410 TIP3     4020     TIP3     H2       HT       0.417000       1.00800           0
     29411 TIP3     4021     TIP3     OH2      OT      -0.834000       15.9994           0
     29412 TIP3     4021     TIP3     H1       HT       0.417000       1.00800           0
     29413 TIP3     4021     TIP3     H2       HT       0.417000       1.00800           0
     29414 TIP3     4022     TIP3     OH2      OT      -0.834000       15.9994           0
     29415 TIP3     4022     TIP3     H1       HT       0.417000       1.00800           0
     29416 TIP3     4022     TIP3     H2       HT       0.417000       1.00800           0
     29417 TIP3     4023     TIP3     OH2      OT      -0.834000       15.9994           0
     29418 TIP3     4023     TIP3     H1       HT       0.417000       1.00800           0
     29419 TIP3     4023     TIP3     H2       HT       0.417000       1.00800           0
     29420 TIP3     4024     TIP3     OH2      OT      -0.834000       15.9994           0
     29421 TIP3     4024     TIP3     H1       HT       0.417000       1.00800           0
     29422 TIP3     4024     TIP3     H2       HT       0.417000       1.00800           0
     29423 TIP3     4025     TIP3     OH2      OT      -0.834000       15.9994           0
     29424 TIP3     4025     TIP3     H1       HT       0.417000       1.00800           0
     29425 TIP3     4025     TIP3     H2       HT       0.417000       1.00800           0
     29426 TIP3     4026     TIP3     OH2      OT      -0.834000       15.9994           0
     29427 TIP3     4026     TIP3     H1       HT       0.417000       1.00800           0
     29428 TIP3     4026     TIP3     H2       HT       0.417000       1.00800           0
     29429 TIP3     4027     TIP3     OH2      OT      -0.834000       15.9994           0
     29430 TIP3     4027     TIP3     H1       HT       0.417000       1.00800           0
     29431 TIP3     4027     TIP3     H2       HT       0.417000       1.00800           0
     29432 TIP3     4028     TIP3     OH2      OT      -0.834000       15.9994           0
     29433 TIP3     4028     TIP3     H1       HT       0.417000       1.00800           0
     29434 TIP3     4028     TIP3     H2       HT       0.417000       1.00800           0
     29435 TIP3     4029     TIP3     OH2      OT      -0.834000       15.9994           0
     29436 TIP3     4029     TIP3     H1       HT       0.417000       1.00800           0
     29437 TIP3     4029     TIP3     H2       HT       0.417000       1.00800           0
     29438 TIP3     4030     TIP3     OH2      OT      -0.834000       15.9994           0
     29439 TIP3     4030     TIP3     H1       HT       0.417000       1.00800           0
     29440 TIP3     4030     TIP3     H2       HT       0.417000       1.00800           0
     29441 TIP3     4031     TIP3     OH2      OT      -0.834000       15.9994           0
     29442 TIP3     4031     TIP3     H1       HT       0.417000       1.00800           0
     29443 TIP3     4031     TIP3     H2       HT       0.417000       1.00800           0
     29444 TIP3     4032     TIP3     OH2      OT      -0.834000       15.9994           0
     29445 TIP3     4032     TIP3     H1       HT       0.417000       1.00800           0
     29446 TIP3     4032     TIP3     H2       HT       0.417000       1.00800           0
     29447 TIP3     4033     TIP3     OH2      OT      -0.834000       15.9994           0
     29448 TIP3     4033     TIP3     H1       HT       0.417000       1.00800           0
     29449 TIP3     4033     TIP3     H2       HT       0.417000       1.00800           0
     29450 TIP3     4034     TIP3     OH2      OT      -0.834000       15.9994           0
     29451 TIP3     4034     TIP3     H1       HT       0.417000       1.00800           0
     29452 TIP3     4034     TIP3     H2       HT       0.417000       1.00800           0
     29453 TIP3     4035     TIP3     OH2      OT      -0.834000       15.9994           0
     29454 TIP3     4035     TIP3     H1       HT       0.417000       1.00800           0
     29455 TIP3     4035     TIP3     H2       HT       0.417000       1.00800           0
     29456 TIP3     4036     TIP3     OH2      OT      -0.834000       15.9994           0
     29457 TIP3     4036     TIP3     H1       HT       0.417000       1.00800           0
     29458 TIP3     4036     TIP3     H2       HT       0.417000       1.00800           0
     29459 TIP3     4037     TIP3     OH2      OT      -0.834000       15.9994           0
     29460 TIP3     4037     TIP3     H1       HT       0.417000       1.00800           0
     29461 TIP3     4037     TIP3     H2       HT       0.417000       1.00800           0
     29462 TIP3     4038     TIP3     OH2      OT      -0.834000       15.9994           0
     29463 TIP3     4038     TIP3     H1       HT       0.417000       1.00800           0
     29464 TIP3     4038     TIP3     H2       HT       0.417000       1.00800           0
     29465 TIP3     4039     TIP3     OH2      OT      -0.834000       15.9994           0
     29466 TIP3     4039     TIP3     H1       HT       0.417000       1.00800           0
     29467 TIP3     4039     TIP3     H2       HT       0.417000       1.00800           0
     29468 TIP3     4040     TIP3     OH2      OT      -0.834000       15.9994           0
     29469 TIP3     4040     TIP3     H1       HT       0.417000       1.00800           0
     29470 TIP3     4040     TIP3     H2       HT       0.417000       1.00800           0
     29471 TIP3     4041     TIP3     OH2      OT      -0.834000       15.9994           0
     29472 TIP3     4041     TIP3     H1       HT       0.417000       1.00800           0
     29473 TIP3     4041     TIP3     H2       HT       0.417000       1.00800           0
     29474 TIP3     4042     TIP3     OH2      OT      -0.834000       15.9994           0
     29475 TIP3     4042     TIP3     H1       HT       0.417000       1.00800           0
     29476 TIP3     4042     TIP3     H2       HT       0.417000       1.00800           0
     29477 TIP3     4043     TIP3     OH2      OT      -0.834000       15.9994           0
     29478 TIP3     4043     TIP3     H1       HT       0.417000       1.00800           0
     29479 TIP3     4043     TIP3     H2       HT       0.417000       1.00800           0
     29480 TIP3     4044     TIP3     OH2      OT      -0.834000       15.9994           0
     29481 TIP3     4044     TIP3     H1       HT       0.417000       1.00800           0
     29482 TIP3     4044     TIP3     H2       HT       0.417000       1.00800           0
     29483 TIP3     4045     TIP3     OH2      OT      -0.834000       15.9994           0
     29484 TIP3     4045     TIP3     H1       HT       0.417000       1.00800           0
     29485 TIP3     4045     TIP3     H2       HT       0.417000       1.00800           0
     29486 TIP3     4046     TIP3     OH2      OT      -0.834000       15.9994           0
     29487 TIP3     4046     TIP3     H1       HT       0.417000       1.00800           0
     29488 TIP3     4046     TIP3     H2       HT       0.417000       1.00800           0
     29489 TIP3     4047     TIP3     OH2      OT      -0.834000       15.9994           0
     29490 TIP3     4047     TIP3     H1       HT       0.417000       1.00800           0
     29491 TIP3     4047     TIP3     H2       HT       0.417000       1.00800           0
     29492 TIP3     4048     TIP3     OH2      OT      -0.834000       15.9994           0
     29493 TIP3     4048     TIP3     H1       HT       0.417000       1.00800           0
     29494 TIP3     4048     TIP3     H2       HT       0.417000       1.00800           0
     29495 TIP3     4049     TIP3     OH2      OT      -0.834000       15.9994           0
     29496 TIP3     4049     TIP3     H1       HT       0.417000       1.00800           0
     29497 TIP3     4049     TIP3     H2       HT       0.417000       1.00800           0
     29498 TIP3     4050     TIP3     OH2      OT      -0.834000       15.9994           0
     29499 TIP3     4050     TIP3     H1       HT       0.417000       1.00800           0
     29500 TIP3     4050     TIP3     H2       HT       0.417000       1.00800           0
     29501 TIP3     4051     TIP3     OH2      OT      -0.834000       15.9994           0
     29502 TIP3     4051     TIP3     H1       HT       0.417000       1.00800           0
     29503 TIP3     4051     TIP3     H2       HT       0.417000       1.00800           0
     29504 TIP3     4052     TIP3     OH2      OT      -0.834000       15.9994           0
     29505 TIP3     4052     TIP3     H1       HT       0.417000       1.00800           0
     29506 TIP3     4052     TIP3     H2       HT       0.417000       1.00800           0
     29507 TIP3     4053     TIP3     OH2      OT      -0.834000       15.9994           0
     29508 TIP3     4053     TIP3     H1       HT       0.417000       1.00800           0
     29509 TIP3     4053     TIP3     H2       HT       0.417000       1.00800           0
     29510 TIP3     4054     TIP3     OH2      OT      -0.834000       15.9994           0
     29511 TIP3     4054     TIP3     H1       HT       0.417000       1.00800           0
     29512 TIP3     4054     TIP3     H2       HT       0.417000       1.00800           0
     29513 TIP3     4055     TIP3     OH2      OT      -0.834000       15.9994           0
     29514 TIP3     4055     TIP3     H1       HT       0.417000       1.00800           0
     29515 TIP3     4055     TIP3     H2       HT       0.417000       1.00800           0
     29516 TIP3     4056     TIP3     OH2      OT      -0.834000       15.9994           0
     29517 TIP3     4056     TIP3     H1       HT       0.417000       1.00800           0
     29518 TIP3     4056     TIP3     H2       HT       0.417000       1.00800           0
     29519 TIP3     4057     TIP3     OH2      OT      -0.834000       15.9994           0
     29520 TIP3     4057     TIP3     H1       HT       0.417000       1.00800           0
     29521 TIP3     4057     TIP3     H2       HT       0.417000       1.00800           0
     29522 TIP3     4058     TIP3     OH2      OT      -0.834000       15.9994           0
     29523 TIP3     4058     TIP3     H1       HT       0.417000       1.00800           0
     29524 TIP3     4058     TIP3     H2       HT       0.417000       1.00800           0
     29525 TIP3     4059     TIP3     OH2      OT      -0.834000       15.9994           0
     29526 TIP3     4059     TIP3     H1       HT       0.417000       1.00800           0
     29527 TIP3     4059     TIP3     H2       HT       0.417000       1.00800           0
     29528 TIP3     4060     TIP3     OH2      OT      -0.834000       15.9994           0
     29529 TIP3     4060     TIP3     H1       HT       0.417000       1.00800           0
     29530 TIP3     4060     TIP3     H2       HT       0.417000       1.00800           0
     29531 TIP3     4061     TIP3     OH2      OT      -0.834000       15.9994           0
     29532 TIP3     4061     TIP3     H1       HT       0.417000       1.00800           0
     29533 TIP3     4061     TIP3     H2       HT       0.417000       1.00800           0
     29534 TIP3     4062     TIP3     OH2      OT      -0.834000       15.9994           0
     29535 TIP3     4062     TIP3     H1       HT       0.417000       1.00800           0
     29536 TIP3     4062     TIP3     H2       HT       0.417000       1.00800           0
     29537 TIP3     4063     TIP3     OH2      OT      -0.834000       15.9994           0
     29538 TIP3     4063     TIP3     H1       HT       0.417000       1.00800           0
     29539 TIP3     4063     TIP3     H2       HT       0.417000       1.00800           0
     29540 TIP3     4064     TIP3     OH2      OT      -0.834000       15.9994           0
     29541 TIP3     4064     TIP3     H1       HT       0.417000       1.00800           0
     29542 TIP3     4064     TIP3     H2       HT       0.417000       1.00800           0
     29543 TIP3     4065     TIP3     OH2      OT      -0.834000       15.9994           0
     29544 TIP3     4065     TIP3     H1       HT       0.417000       1.00800           0
     29545 TIP3     4065     TIP3     H2       HT       0.417000       1.00800           0
     29546 TIP3     4066     TIP3     OH2      OT      -0.834000       15.9994           0
     29547 TIP3     4066     TIP3     H1       HT       0.417000       1.00800           0
     29548 TIP3     4066     TIP3     H2       HT       0.417000       1.00800           0
     29549 TIP3     4067     TIP3     OH2      OT      -0.834000       15.9994           0
     29550 TIP3     4067     TIP3     H1       HT       0.417000       1.00800           0
     29551 TIP3     4067     TIP3     H2       HT       0.417000       1.00800           0
     29552 TIP3     4068     TIP3     OH2      OT      -0.834000       15.9994           0
     29553 TIP3     4068     TIP3     H1       HT       0.417000       1.00800           0
     29554 TIP3     4068     TIP3     H2       HT       0.417000       1.00800           0
     29555 TIP3     4069     TIP3     OH2      OT      -0.834000       15.9994           0
     29556 TIP3     4069     TIP3     H1       HT       0.417000       1.00800           0
     29557 TIP3     4069     TIP3     H2       HT       0.417000       1.00800           0
     29558 TIP3     4070     TIP3     OH2      OT      -0.834000       15.9994           0
     29559 TIP3     4070     TIP3     H1       HT       0.417000       1.00800           0
     29560 TIP3     4070     TIP3     H2       HT       0.417000       1.00800           0
     29561 TIP3     4071     TIP3     OH2      OT      -0.834000       15.9994           0
     29562 TIP3     4071     TIP3     H1       HT       0.417000       1.00800           0
     29563 TIP3     4071     TIP3     H2       HT       0.417000       1.00800           0
     29564 TIP3     4072     TIP3     OH2      OT      -0.834000       15.9994           0
     29565 TIP3     4072     TIP3     H1       HT       0.417000       1.00800           0
     29566 TIP3     4072     TIP3     H2       HT       0.417000       1.00800           0
     29567 TIP3     4073     TIP3     OH2      OT      -0.834000       15.9994           0
     29568 TIP3     4073     TIP3     H1       HT       0.417000       1.00800           0
     29569 TIP3     4073     TIP3     H2       HT       0.417000       1.00800           0
     29570 TIP3     4074     TIP3     OH2      OT      -0.834000       15.9994           0
     29571 TIP3     4074     TIP3     H1       HT       0.417000       1.00800           0
     29572 TIP3     4074     TIP3     H2       HT       0.417000       1.00800           0
     29573 TIP3     4075     TIP3     OH2      OT      -0.834000       15.9994           0
     29574 TIP3     4075     TIP3     H1       HT       0.417000       1.00800           0
     29575 TIP3     4075     TIP3     H2       HT       0.417000       1.00800           0
     29576 TIP3     4076     TIP3     OH2      OT      -0.834000       15.9994           0
     29577 TIP3     4076     TIP3     H1       HT       0.417000       1.00800           0
     29578 TIP3     4076     TIP3     H2       HT       0.417000       1.00800           0
     29579 TIP3     4077     TIP3     OH2      OT      -0.834000       15.9994           0
     29580 TIP3     4077     TIP3     H1       HT       0.417000       1.00800           0
     29581 TIP3     4077     TIP3     H2       HT       0.417000       1.00800           0
     29582 TIP3     4078     TIP3     OH2      OT      -0.834000       15.9994           0
     29583 TIP3     4078     TIP3     H1       HT       0.417000       1.00800           0
     29584 TIP3     4078     TIP3     H2       HT       0.417000       1.00800           0
     29585 TIP3     4079     TIP3     OH2      OT      -0.834000       15.9994           0
     29586 TIP3     4079     TIP3     H1       HT       0.417000       1.00800           0
     29587 TIP3     4079     TIP3     H2       HT       0.417000       1.00800           0
     29588 TIP3     4080     TIP3     OH2      OT      -0.834000       15.9994           0
     29589 TIP3     4080     TIP3     H1       HT       0.417000       1.00800           0
     29590 TIP3     4080     TIP3     H2       HT       0.417000       1.00800           0
     29591 TIP3     4081     TIP3     OH2      OT      -0.834000       15.9994           0
     29592 TIP3     4081     TIP3     H1       HT       0.417000       1.00800           0
     29593 TIP3     4081     TIP3     H2       HT       0.417000       1.00800           0
     29594 TIP3     4082     TIP3     OH2      OT      -0.834000       15.9994           0
     29595 TIP3     4082     TIP3     H1       HT       0.417000       1.00800           0
     29596 TIP3     4082     TIP3     H2       HT       0.417000       1.00800           0
     29597 TIP3     4083     TIP3     OH2      OT      -0.834000       15.9994           0
     29598 TIP3     4083     TIP3     H1       HT       0.417000       1.00800           0
     29599 TIP3     4083     TIP3     H2       HT       0.417000       1.00800           0
     29600 TIP3     4084     TIP3     OH2      OT      -0.834000       15.9994           0
     29601 TIP3     4084     TIP3     H1       HT       0.417000       1.00800           0
     29602 TIP3     4084     TIP3     H2       HT       0.417000       1.00800           0
     29603 TIP3     4085     TIP3     OH2      OT      -0.834000       15.9994           0
     29604 TIP3     4085     TIP3     H1       HT       0.417000       1.00800           0
     29605 TIP3     4085     TIP3     H2       HT       0.417000       1.00800           0
     29606 TIP3     4086     TIP3     OH2      OT      -0.834000       15.9994           0
     29607 TIP3     4086     TIP3     H1       HT       0.417000       1.00800           0
     29608 TIP3     4086     TIP3     H2       HT       0.417000       1.00800           0
     29609 TIP3     4087     TIP3     OH2      OT      -0.834000       15.9994           0
     29610 TIP3     4087     TIP3     H1       HT       0.417000       1.00800           0
     29611 TIP3     4087     TIP3     H2       HT       0.417000       1.00800           0
     29612 TIP3     4088     TIP3     OH2      OT      -0.834000       15.9994           0
     29613 TIP3     4088     TIP3     H1       HT       0.417000       1.00800           0
     29614 TIP3     4088     TIP3     H2       HT       0.417000       1.00800           0
     29615 TIP3     4089     TIP3     OH2      OT      -0.834000       15.9994           0
     29616 TIP3     4089     TIP3     H1       HT       0.417000       1.00800           0
     29617 TIP3     4089     TIP3     H2       HT       0.417000       1.00800           0
     29618 TIP3     4090     TIP3     OH2      OT      -0.834000       15.9994           0
     29619 TIP3     4090     TIP3     H1       HT       0.417000       1.00800           0
     29620 TIP3     4090     TIP3     H2       HT       0.417000       1.00800           0
     29621 TIP3     4091     TIP3     OH2      OT      -0.834000       15.9994           0
     29622 TIP3     4091     TIP3     H1       HT       0.417000       1.00800           0
     29623 TIP3     4091     TIP3     H2       HT       0.417000       1.00800           0
     29624 TIP3     4092     TIP3     OH2      OT      -0.834000       15.9994           0
     29625 TIP3     4092     TIP3     H1       HT       0.417000       1.00800           0
     29626 TIP3     4092     TIP3     H2       HT       0.417000       1.00800           0
     29627 TIP3     4093     TIP3     OH2      OT      -0.834000       15.9994           0
     29628 TIP3     4093     TIP3     H1       HT       0.417000       1.00800           0
     29629 TIP3     4093     TIP3     H2       HT       0.417000       1.00800           0
     29630 TIP3     4094     TIP3     OH2      OT      -0.834000       15.9994           0
     29631 TIP3     4094     TIP3     H1       HT       0.417000       1.00800           0
     29632 TIP3     4094     TIP3     H2       HT       0.417000       1.00800           0
     29633 TIP3     4095     TIP3     OH2      OT      -0.834000       15.9994           0
     29634 TIP3     4095     TIP3     H1       HT       0.417000       1.00800           0
     29635 TIP3     4095     TIP3     H2       HT       0.417000       1.00800           0
     29636 TIP3     4096     TIP3     OH2      OT      -0.834000       15.9994           0
     29637 TIP3     4096     TIP3     H1       HT       0.417000       1.00800           0
     29638 TIP3     4096     TIP3     H2       HT       0.417000       1.00800           0
     29639 TIP3     4097     TIP3     OH2      OT      -0.834000       15.9994           0
     29640 TIP3     4097     TIP3     H1       HT       0.417000       1.00800           0
     29641 TIP3     4097     TIP3     H2       HT       0.417000       1.00800           0
     29642 TIP3     4098     TIP3     OH2      OT      -0.834000       15.9994           0
     29643 TIP3     4098     TIP3     H1       HT       0.417000       1.00800           0
     29644 TIP3     4098     TIP3     H2       HT       0.417000       1.00800           0
     29645 TIP3     4099     TIP3     OH2      OT      -0.834000       15.9994           0
     29646 TIP3     4099     TIP3     H1       HT       0.417000       1.00800           0
     29647 TIP3     4099     TIP3     H2       HT       0.417000       1.00800           0
     29648 TIP3     4100     TIP3     OH2      OT      -0.834000       15.9994           0
     29649 TIP3     4100     TIP3     H1       HT       0.417000       1.00800           0
     29650 TIP3     4100     TIP3     H2       HT       0.417000       1.00800           0
     29651 TIP3     4101     TIP3     OH2      OT      -0.834000       15.9994           0
     29652 TIP3     4101     TIP3     H1       HT       0.417000       1.00800           0
     29653 TIP3     4101     TIP3     H2       HT       0.417000       1.00800           0
     29654 TIP3     4102     TIP3     OH2      OT      -0.834000       15.9994           0
     29655 TIP3     4102     TIP3     H1       HT       0.417000       1.00800           0
     29656 TIP3     4102     TIP3     H2       HT       0.417000       1.00800           0
     29657 TIP3     4103     TIP3     OH2      OT      -0.834000       15.9994           0
     29658 TIP3     4103     TIP3     H1       HT       0.417000       1.00800           0
     29659 TIP3     4103     TIP3     H2       HT       0.417000       1.00800           0
     29660 TIP3     4104     TIP3     OH2      OT      -0.834000       15.9994           0
     29661 TIP3     4104     TIP3     H1       HT       0.417000       1.00800           0
     29662 TIP3     4104     TIP3     H2       HT       0.417000       1.00800           0
     29663 TIP3     4105     TIP3     OH2      OT      -0.834000       15.9994           0
     29664 TIP3     4105     TIP3     H1       HT       0.417000       1.00800           0
     29665 TIP3     4105     TIP3     H2       HT       0.417000       1.00800           0
     29666 TIP3     4106     TIP3     OH2      OT      -0.834000       15.9994           0
     29667 TIP3     4106     TIP3     H1       HT       0.417000       1.00800           0
     29668 TIP3     4106     TIP3     H2       HT       0.417000       1.00800           0
     29669 TIP3     4107     TIP3     OH2      OT      -0.834000       15.9994           0
     29670 TIP3     4107     TIP3     H1       HT       0.417000       1.00800           0
     29671 TIP3     4107     TIP3     H2       HT       0.417000       1.00800           0
     29672 TIP3     4108     TIP3     OH2      OT      -0.834000       15.9994           0
     29673 TIP3     4108     TIP3     H1       HT       0.417000       1.00800           0
     29674 TIP3     4108     TIP3     H2       HT       0.417000       1.00800           0
     29675 TIP3     4109     TIP3     OH2      OT      -0.834000       15.9994           0
     29676 TIP3     4109     TIP3     H1       HT       0.417000       1.00800           0
     29677 TIP3     4109     TIP3     H2       HT       0.417000       1.00800           0
     29678 TIP3     4110     TIP3     OH2      OT      -0.834000       15.9994           0
     29679 TIP3     4110     TIP3     H1       HT       0.417000       1.00800           0
     29680 TIP3     4110     TIP3     H2       HT       0.417000       1.00800           0
     29681 TIP3     4111     TIP3     OH2      OT      -0.834000       15.9994           0
     29682 TIP3     4111     TIP3     H1       HT       0.417000       1.00800           0
     29683 TIP3     4111     TIP3     H2       HT       0.417000       1.00800           0
     29684 TIP3     4112     TIP3     OH2      OT      -0.834000       15.9994           0
     29685 TIP3     4112     TIP3     H1       HT       0.417000       1.00800           0
     29686 TIP3     4112     TIP3     H2       HT       0.417000       1.00800           0
     29687 TIP3     4113     TIP3     OH2      OT      -0.834000       15.9994           0
     29688 TIP3     4113     TIP3     H1       HT       0.417000       1.00800           0
     29689 TIP3     4113     TIP3     H2       HT       0.417000       1.00800           0
     29690 TIP3     4114     TIP3     OH2      OT      -0.834000       15.9994           0
     29691 TIP3     4114     TIP3     H1       HT       0.417000       1.00800           0
     29692 TIP3     4114     TIP3     H2       HT       0.417000       1.00800           0
     29693 TIP3     4115     TIP3     OH2      OT      -0.834000       15.9994           0
     29694 TIP3     4115     TIP3     H1       HT       0.417000       1.00800           0
     29695 TIP3     4115     TIP3     H2       HT       0.417000       1.00800           0
     29696 TIP3     4116     TIP3     OH2      OT      -0.834000       15.9994           0
     29697 TIP3     4116     TIP3     H1       HT       0.417000       1.00800           0
     29698 TIP3     4116     TIP3     H2       HT       0.417000       1.00800           0
     29699 TIP3     4117     TIP3     OH2      OT      -0.834000       15.9994           0
     29700 TIP3     4117     TIP3     H1       HT       0.417000       1.00800           0
     29701 TIP3     4117     TIP3     H2       HT       0.417000       1.00800           0
     29702 TIP3     4118     TIP3     OH2      OT      -0.834000       15.9994           0
     29703 TIP3     4118     TIP3     H1       HT       0.417000       1.00800           0
     29704 TIP3     4118     TIP3     H2       HT       0.417000       1.00800           0
     29705 TIP3     4119     TIP3     OH2      OT      -0.834000       15.9994           0
     29706 TIP3     4119     TIP3     H1       HT       0.417000       1.00800           0
     29707 TIP3     4119     TIP3     H2       HT       0.417000       1.00800           0
     29708 TIP3     4120     TIP3     OH2      OT      -0.834000       15.9994           0
     29709 TIP3     4120     TIP3     H1       HT       0.417000       1.00800           0
     29710 TIP3     4120     TIP3     H2       HT       0.417000       1.00800           0
     29711 TIP3     4121     TIP3     OH2      OT      -0.834000       15.9994           0
     29712 TIP3     4121     TIP3     H1       HT       0.417000       1.00800           0
     29713 TIP3     4121     TIP3     H2       HT       0.417000       1.00800           0
     29714 TIP3     4122     TIP3     OH2      OT      -0.834000       15.9994           0
     29715 TIP3     4122     TIP3     H1       HT       0.417000       1.00800           0
     29716 TIP3     4122     TIP3     H2       HT       0.417000       1.00800           0
     29717 TIP3     4123     TIP3     OH2      OT      -0.834000       15.9994           0
     29718 TIP3     4123     TIP3     H1       HT       0.417000       1.00800           0
     29719 TIP3     4123     TIP3     H2       HT       0.417000       1.00800           0
     29720 TIP3     4124     TIP3     OH2      OT      -0.834000       15.9994           0
     29721 TIP3     4124     TIP3     H1       HT       0.417000       1.00800           0
     29722 TIP3     4124     TIP3     H2       HT       0.417000       1.00800           0
     29723 TIP3     4125     TIP3     OH2      OT      -0.834000       15.9994           0
     29724 TIP3     4125     TIP3     H1       HT       0.417000       1.00800           0
     29725 TIP3     4125     TIP3     H2       HT       0.417000       1.00800           0
     29726 TIP3     4126     TIP3     OH2      OT      -0.834000       15.9994           0
     29727 TIP3     4126     TIP3     H1       HT       0.417000       1.00800           0
     29728 TIP3     4126     TIP3     H2       HT       0.417000       1.00800           0
     29729 TIP3     4127     TIP3     OH2      OT      -0.834000       15.9994           0
     29730 TIP3     4127     TIP3     H1       HT       0.417000       1.00800           0
     29731 TIP3     4127     TIP3     H2       HT       0.417000       1.00800           0
     29732 TIP3     4128     TIP3     OH2      OT      -0.834000       15.9994           0
     29733 TIP3     4128     TIP3     H1       HT       0.417000       1.00800           0
     29734 TIP3     4128     TIP3     H2       HT       0.417000       1.00800           0
     29735 TIP3     4129     TIP3     OH2      OT      -0.834000       15.9994           0
     29736 TIP3     4129     TIP3     H1       HT       0.417000       1.00800           0
     29737 TIP3     4129     TIP3     H2       HT       0.417000       1.00800           0
     29738 TIP3     4130     TIP3     OH2      OT      -0.834000       15.9994           0
     29739 TIP3     4130     TIP3     H1       HT       0.417000       1.00800           0
     29740 TIP3     4130     TIP3     H2       HT       0.417000       1.00800           0
     29741 TIP3     4131     TIP3     OH2      OT      -0.834000       15.9994           0
     29742 TIP3     4131     TIP3     H1       HT       0.417000       1.00800           0
     29743 TIP3     4131     TIP3     H2       HT       0.417000       1.00800           0
     29744 TIP3     4132     TIP3     OH2      OT      -0.834000       15.9994           0
     29745 TIP3     4132     TIP3     H1       HT       0.417000       1.00800           0
     29746 TIP3     4132     TIP3     H2       HT       0.417000       1.00800           0
     29747 TIP3     4133     TIP3     OH2      OT      -0.834000       15.9994           0
     29748 TIP3     4133     TIP3     H1       HT       0.417000       1.00800           0
     29749 TIP3     4133     TIP3     H2       HT       0.417000       1.00800           0
     29750 TIP3     4134     TIP3     OH2      OT      -0.834000       15.9994           0
     29751 TIP3     4134     TIP3     H1       HT       0.417000       1.00800           0
     29752 TIP3     4134     TIP3     H2       HT       0.417000       1.00800           0
     29753 TIP3     4135     TIP3     OH2      OT      -0.834000       15.9994           0
     29754 TIP3     4135     TIP3     H1       HT       0.417000       1.00800           0
     29755 TIP3     4135     TIP3     H2       HT       0.417000       1.00800           0
     29756 TIP3     4136     TIP3     OH2      OT      -0.834000       15.9994           0
     29757 TIP3     4136     TIP3     H1       HT       0.417000       1.00800           0
     29758 TIP3     4136     TIP3     H2       HT       0.417000       1.00800           0
     29759 TIP3     4137     TIP3     OH2      OT      -0.834000       15.9994           0
     29760 TIP3     4137     TIP3     H1       HT       0.417000       1.00800           0
     29761 TIP3     4137     TIP3     H2       HT       0.417000       1.00800           0
     29762 TIP3     4138     TIP3     OH2      OT      -0.834000       15.9994           0
     29763 TIP3     4138     TIP3     H1       HT       0.417000       1.00800           0
     29764 TIP3     4138     TIP3     H2       HT       0.417000       1.00800           0
     29765 TIP3     4139     TIP3     OH2      OT      -0.834000       15.9994           0
     29766 TIP3     4139     TIP3     H1       HT       0.417000       1.00800           0
     29767 TIP3     4139     TIP3     H2       HT       0.417000       1.00800           0
     29768 TIP3     4140     TIP3     OH2      OT      -0.834000       15.9994           0
     29769 TIP3     4140     TIP3     H1       HT       0.417000       1.00800           0
     29770 TIP3     4140     TIP3     H2       HT       0.417000       1.00800           0
     29771 TIP3     4141     TIP3     OH2      OT      -0.834000       15.9994           0
     29772 TIP3     4141     TIP3     H1       HT       0.417000       1.00800           0
     29773 TIP3     4141     TIP3     H2       HT       0.417000       1.00800           0
     29774 TIP3     4142     TIP3     OH2      OT      -0.834000       15.9994           0
     29775 TIP3     4142     TIP3     H1       HT       0.417000       1.00800           0
     29776 TIP3     4142     TIP3     H2       HT       0.417000       1.00800           0
     29777 TIP3     4143     TIP3     OH2      OT      -0.834000       15.9994           0
     29778 TIP3     4143     TIP3     H1       HT       0.417000       1.00800           0
     29779 TIP3     4143     TIP3     H2       HT       0.417000       1.00800           0
     29780 TIP3     4144     TIP3     OH2      OT      -0.834000       15.9994           0
     29781 TIP3     4144     TIP3     H1       HT       0.417000       1.00800           0
     29782 TIP3     4144     TIP3     H2       HT       0.417000       1.00800           0
     29783 TIP3     4145     TIP3     OH2      OT      -0.834000       15.9994           0
     29784 TIP3     4145     TIP3     H1       HT       0.417000       1.00800           0
     29785 TIP3     4145     TIP3     H2       HT       0.417000       1.00800           0
     29786 TIP3     4146     TIP3     OH2      OT      -0.834000       15.9994           0
     29787 TIP3     4146     TIP3     H1       HT       0.417000       1.00800           0
     29788 TIP3     4146     TIP3     H2       HT       0.417000       1.00800           0
     29789 TIP3     4147     TIP3     OH2      OT      -0.834000       15.9994           0
     29790 TIP3     4147     TIP3     H1       HT       0.417000       1.00800           0
     29791 TIP3     4147     TIP3     H2       HT       0.417000       1.00800           0
     29792 TIP3     4148     TIP3     OH2      OT      -0.834000       15.9994           0
     29793 TIP3     4148     TIP3     H1       HT       0.417000       1.00800           0
     29794 TIP3     4148     TIP3     H2       HT       0.417000       1.00800           0
     29795 TIP3     4149     TIP3     OH2      OT      -0.834000       15.9994           0
     29796 TIP3     4149     TIP3     H1       HT       0.417000       1.00800           0
     29797 TIP3     4149     TIP3     H2       HT       0.417000       1.00800           0
     29798 TIP3     4150     TIP3     OH2      OT      -0.834000       15.9994           0
     29799 TIP3     4150     TIP3     H1       HT       0.417000       1.00800           0
     29800 TIP3     4150     TIP3     H2       HT       0.417000       1.00800           0
     29801 TIP3     4151     TIP3     OH2      OT      -0.834000       15.9994           0
     29802 TIP3     4151     TIP3     H1       HT       0.417000       1.00800           0
     29803 TIP3     4151     TIP3     H2       HT       0.417000       1.00800           0
     29804 TIP3     4152     TIP3     OH2      OT      -0.834000       15.9994           0
     29805 TIP3     4152     TIP3     H1       HT       0.417000       1.00800           0
     29806 TIP3     4152     TIP3     H2       HT       0.417000       1.00800           0
     29807 TIP3     4153     TIP3     OH2      OT      -0.834000       15.9994           0
     29808 TIP3     4153     TIP3     H1       HT       0.417000       1.00800           0
     29809 TIP3     4153     TIP3     H2       HT       0.417000       1.00800           0
     29810 TIP3     4154     TIP3     OH2      OT      -0.834000       15.9994           0
     29811 TIP3     4154     TIP3     H1       HT       0.417000       1.00800           0
     29812 TIP3     4154     TIP3     H2       HT       0.417000       1.00800           0
     29813 TIP3     4155     TIP3     OH2      OT      -0.834000       15.9994           0
     29814 TIP3     4155     TIP3     H1       HT       0.417000       1.00800           0
     29815 TIP3     4155     TIP3     H2       HT       0.417000       1.00800           0
     29816 TIP3     4156     TIP3     OH2      OT      -0.834000       15.9994           0
     29817 TIP3     4156     TIP3     H1       HT       0.417000       1.00800           0
     29818 TIP3     4156     TIP3     H2       HT       0.417000       1.00800           0
     29819 TIP3     4157     TIP3     OH2      OT      -0.834000       15.9994           0
     29820 TIP3     4157     TIP3     H1       HT       0.417000       1.00800           0
     29821 TIP3     4157     TIP3     H2       HT       0.417000       1.00800           0
     29822 TIP3     4158     TIP3     OH2      OT      -0.834000       15.9994           0
     29823 TIP3     4158     TIP3     H1       HT       0.417000       1.00800           0
     29824 TIP3     4158     TIP3     H2       HT       0.417000       1.00800           0
     29825 TIP3     4159     TIP3     OH2      OT      -0.834000       15.9994           0
     29826 TIP3     4159     TIP3     H1       HT       0.417000       1.00800           0
     29827 TIP3     4159     TIP3     H2       HT       0.417000       1.00800           0
     29828 TIP3     4160     TIP3     OH2      OT      -0.834000       15.9994           0
     29829 TIP3     4160     TIP3     H1       HT       0.417000       1.00800           0
     29830 TIP3     4160     TIP3     H2       HT       0.417000       1.00800           0
     29831 TIP3     4161     TIP3     OH2      OT      -0.834000       15.9994           0
     29832 TIP3     4161     TIP3     H1       HT       0.417000       1.00800           0
     29833 TIP3     4161     TIP3     H2       HT       0.417000       1.00800           0
     29834 TIP3     4162     TIP3     OH2      OT      -0.834000       15.9994           0
     29835 TIP3     4162     TIP3     H1       HT       0.417000       1.00800           0
     29836 TIP3     4162     TIP3     H2       HT       0.417000       1.00800           0
     29837 TIP3     4163     TIP3     OH2      OT      -0.834000       15.9994           0
     29838 TIP3     4163     TIP3     H1       HT       0.417000       1.00800           0
     29839 TIP3     4163     TIP3     H2       HT       0.417000       1.00800           0
     29840 TIP3     4164     TIP3     OH2      OT      -0.834000       15.9994           0
     29841 TIP3     4164     TIP3     H1       HT       0.417000       1.00800           0
     29842 TIP3     4164     TIP3     H2       HT       0.417000       1.00800           0
     29843 TIP3     4165     TIP3     OH2      OT      -0.834000       15.9994           0
     29844 TIP3     4165     TIP3     H1       HT       0.417000       1.00800           0
     29845 TIP3     4165     TIP3     H2       HT       0.417000       1.00800           0
     29846 TIP3     4166     TIP3     OH2      OT      -0.834000       15.9994           0
     29847 TIP3     4166     TIP3     H1       HT       0.417000       1.00800           0
     29848 TIP3     4166     TIP3     H2       HT       0.417000       1.00800           0
     29849 TIP3     4167     TIP3     OH2      OT      -0.834000       15.9994           0
     29850 TIP3     4167     TIP3     H1       HT       0.417000       1.00800           0
     29851 TIP3     4167     TIP3     H2       HT       0.417000       1.00800           0
     29852 TIP3     4168     TIP3     OH2      OT      -0.834000       15.9994           0
     29853 TIP3     4168     TIP3     H1       HT       0.417000       1.00800           0
     29854 TIP3     4168     TIP3     H2       HT       0.417000       1.00800           0
     29855 TIP3     4169     TIP3     OH2      OT      -0.834000       15.9994           0
     29856 TIP3     4169     TIP3     H1       HT       0.417000       1.00800           0
     29857 TIP3     4169     TIP3     H2       HT       0.417000       1.00800           0
     29858 TIP3     4170     TIP3     OH2      OT      -0.834000       15.9994           0
     29859 TIP3     4170     TIP3     H1       HT       0.417000       1.00800           0
     29860 TIP3     4170     TIP3     H2       HT       0.417000       1.00800           0
     29861 TIP3     4171     TIP3     OH2      OT      -0.834000       15.9994           0
     29862 TIP3     4171     TIP3     H1       HT       0.417000       1.00800           0
     29863 TIP3     4171     TIP3     H2       HT       0.417000       1.00800           0
     29864 TIP3     4172     TIP3     OH2      OT      -0.834000       15.9994           0
     29865 TIP3     4172     TIP3     H1       HT       0.417000       1.00800           0
     29866 TIP3     4172     TIP3     H2       HT       0.417000       1.00800           0
     29867 TIP3     4173     TIP3     OH2      OT      -0.834000       15.9994           0
     29868 TIP3     4173     TIP3     H1       HT       0.417000       1.00800           0
     29869 TIP3     4173     TIP3     H2       HT       0.417000       1.00800           0
     29870 TIP3     4174     TIP3     OH2      OT      -0.834000       15.9994           0
     29871 TIP3     4174     TIP3     H1       HT       0.417000       1.00800           0
     29872 TIP3     4174     TIP3     H2       HT       0.417000       1.00800           0
     29873 TIP3     4175     TIP3     OH2      OT      -0.834000       15.9994           0
     29874 TIP3     4175     TIP3     H1       HT       0.417000       1.00800           0
     29875 TIP3     4175     TIP3     H2       HT       0.417000       1.00800           0
     29876 TIP3     4176     TIP3     OH2      OT      -0.834000       15.9994           0
     29877 TIP3     4176     TIP3     H1       HT       0.417000       1.00800           0
     29878 TIP3     4176     TIP3     H2       HT       0.417000       1.00800           0
     29879 TIP3     4177     TIP3     OH2      OT      -0.834000       15.9994           0
     29880 TIP3     4177     TIP3     H1       HT       0.417000       1.00800           0
     29881 TIP3     4177     TIP3     H2       HT       0.417000       1.00800           0
     29882 TIP3     4178     TIP3     OH2      OT      -0.834000       15.9994           0
     29883 TIP3     4178     TIP3     H1       HT       0.417000       1.00800           0
     29884 TIP3     4178     TIP3     H2       HT       0.417000       1.00800           0
     29885 TIP3     4179     TIP3     OH2      OT      -0.834000       15.9994           0
     29886 TIP3     4179     TIP3     H1       HT       0.417000       1.00800           0
     29887 TIP3     4179     TIP3     H2       HT       0.417000       1.00800           0
     29888 TIP3     4180     TIP3     OH2      OT      -0.834000       15.9994           0
     29889 TIP3     4180     TIP3     H1       HT       0.417000       1.00800           0
     29890 TIP3     4180     TIP3     H2       HT       0.417000       1.00800           0
     29891 TIP3     4181     TIP3     OH2      OT      -0.834000       15.9994           0
     29892 TIP3     4181     TIP3     H1       HT       0.417000       1.00800           0
     29893 TIP3     4181     TIP3     H2       HT       0.417000       1.00800           0
     29894 TIP3     4182     TIP3     OH2      OT      -0.834000       15.9994           0
     29895 TIP3     4182     TIP3     H1       HT       0.417000       1.00800           0
     29896 TIP3     4182     TIP3     H2       HT       0.417000       1.00800           0
     29897 TIP3     4183     TIP3     OH2      OT      -0.834000       15.9994           0
     29898 TIP3     4183     TIP3     H1       HT       0.417000       1.00800           0
     29899 TIP3     4183     TIP3     H2       HT       0.417000       1.00800           0
     29900 TIP3     4184     TIP3     OH2      OT      -0.834000       15.9994           0
     29901 TIP3     4184     TIP3     H1       HT       0.417000       1.00800           0
     29902 TIP3     4184     TIP3     H2       HT       0.417000       1.00800           0
     29903 TIP3     4185     TIP3     OH2      OT      -0.834000       15.9994           0
     29904 TIP3     4185     TIP3     H1       HT       0.417000       1.00800           0
     29905 TIP3     4185     TIP3     H2       HT       0.417000       1.00800           0
     29906 TIP3     4186     TIP3     OH2      OT      -0.834000       15.9994           0
     29907 TIP3     4186     TIP3     H1       HT       0.417000       1.00800           0
     29908 TIP3     4186     TIP3     H2       HT       0.417000       1.00800           0
     29909 TIP3     4187     TIP3     OH2      OT      -0.834000       15.9994           0
     29910 TIP3     4187     TIP3     H1       HT       0.417000       1.00800           0
     29911 TIP3     4187     TIP3     H2       HT       0.417000       1.00800           0
     29912 TIP3     4188     TIP3     OH2      OT      -0.834000       15.9994           0
     29913 TIP3     4188     TIP3     H1       HT       0.417000       1.00800           0
     29914 TIP3     4188     TIP3     H2       HT       0.417000       1.00800           0
     29915 TIP3     4189     TIP3     OH2      OT      -0.834000       15.9994           0
     29916 TIP3     4189     TIP3     H1       HT       0.417000       1.00800           0
     29917 TIP3     4189     TIP3     H2       HT       0.417000       1.00800           0
     29918 TIP3     4190     TIP3     OH2      OT      -0.834000       15.9994           0
     29919 TIP3     4190     TIP3     H1       HT       0.417000       1.00800           0
     29920 TIP3     4190     TIP3     H2       HT       0.417000       1.00800           0
     29921 TIP3     4191     TIP3     OH2      OT      -0.834000       15.9994           0
     29922 TIP3     4191     TIP3     H1       HT       0.417000       1.00800           0
     29923 TIP3     4191     TIP3     H2       HT       0.417000       1.00800           0
     29924 TIP3     4192     TIP3     OH2      OT      -0.834000       15.9994           0
     29925 TIP3     4192     TIP3     H1       HT       0.417000       1.00800           0
     29926 TIP3     4192     TIP3     H2       HT       0.417000       1.00800           0
     29927 TIP3     4193     TIP3     OH2      OT      -0.834000       15.9994           0
     29928 TIP3     4193     TIP3     H1       HT       0.417000       1.00800           0
     29929 TIP3     4193     TIP3     H2       HT       0.417000       1.00800           0
     29930 TIP3     4194     TIP3     OH2      OT      -0.834000       15.9994           0
     29931 TIP3     4194     TIP3     H1       HT       0.417000       1.00800           0
     29932 TIP3     4194     TIP3     H2       HT       0.417000       1.00800           0
     29933 TIP3     4195     TIP3     OH2      OT      -0.834000       15.9994           0
     29934 TIP3     4195     TIP3     H1       HT       0.417000       1.00800           0
     29935 TIP3     4195     TIP3     H2       HT       0.417000       1.00800           0
     29936 TIP3     4196     TIP3     OH2      OT      -0.834000       15.9994           0
     29937 TIP3     4196     TIP3     H1       HT       0.417000       1.00800           0
     29938 TIP3     4196     TIP3     H2       HT       0.417000       1.00800           0
     29939 TIP3     4197     TIP3     OH2      OT      -0.834000       15.9994           0
     29940 TIP3     4197     TIP3     H1       HT       0.417000       1.00800           0
     29941 TIP3     4197     TIP3     H2       HT       0.417000       1.00800           0
     29942 TIP3     4198     TIP3     OH2      OT      -0.834000       15.9994           0
     29943 TIP3     4198     TIP3     H1       HT       0.417000       1.00800           0
     29944 TIP3     4198     TIP3     H2       HT       0.417000       1.00800           0
     29945 TIP3     4199     TIP3     OH2      OT      -0.834000       15.9994           0
     29946 TIP3     4199     TIP3     H1       HT       0.417000       1.00800           0
     29947 TIP3     4199     TIP3     H2       HT       0.417000       1.00800           0
     29948 TIP3     4200     TIP3     OH2      OT      -0.834000       15.9994           0
     29949 TIP3     4200     TIP3     H1       HT       0.417000       1.00800           0
     29950 TIP3     4200     TIP3     H2       HT       0.417000       1.00800           0
     29951 TIP3     4201     TIP3     OH2      OT      -0.834000       15.9994           0
     29952 TIP3     4201     TIP3     H1       HT       0.417000       1.00800           0
     29953 TIP3     4201     TIP3     H2       HT       0.417000       1.00800           0
     29954 TIP3     4202     TIP3     OH2      OT      -0.834000       15.9994           0
     29955 TIP3     4202     TIP3     H1       HT       0.417000       1.00800           0
     29956 TIP3     4202     TIP3     H2       HT       0.417000       1.00800           0
     29957 TIP3     4203     TIP3     OH2      OT      -0.834000       15.9994           0
     29958 TIP3     4203     TIP3     H1       HT       0.417000       1.00800           0
     29959 TIP3     4203     TIP3     H2       HT       0.417000       1.00800           0
     29960 TIP3     4204     TIP3     OH2      OT      -0.834000       15.9994           0
     29961 TIP3     4204     TIP3     H1       HT       0.417000       1.00800           0
     29962 TIP3     4204     TIP3     H2       HT       0.417000       1.00800           0
     29963 TIP3     4205     TIP3     OH2      OT      -0.834000       15.9994           0
     29964 TIP3     4205     TIP3     H1       HT       0.417000       1.00800           0
     29965 TIP3     4205     TIP3     H2       HT       0.417000       1.00800           0
     29966 TIP3     4206     TIP3     OH2      OT      -0.834000       15.9994           0
     29967 TIP3     4206     TIP3     H1       HT       0.417000       1.00800           0
     29968 TIP3     4206     TIP3     H2       HT       0.417000       1.00800           0
     29969 TIP3     4207     TIP3     OH2      OT      -0.834000       15.9994           0
     29970 TIP3     4207     TIP3     H1       HT       0.417000       1.00800           0
     29971 TIP3     4207     TIP3     H2       HT       0.417000       1.00800           0
     29972 TIP3     4208     TIP3     OH2      OT      -0.834000       15.9994           0
     29973 TIP3     4208     TIP3     H1       HT       0.417000       1.00800           0
     29974 TIP3     4208     TIP3     H2       HT       0.417000       1.00800           0
     29975 TIP3     4209     TIP3     OH2      OT      -0.834000       15.9994           0
     29976 TIP3     4209     TIP3     H1       HT       0.417000       1.00800           0
     29977 TIP3     4209     TIP3     H2       HT       0.417000       1.00800           0
     29978 TIP3     4210     TIP3     OH2      OT      -0.834000       15.9994           0
     29979 TIP3     4210     TIP3     H1       HT       0.417000       1.00800           0
     29980 TIP3     4210     TIP3     H2       HT       0.417000       1.00800           0
     29981 TIP3     4211     TIP3     OH2      OT      -0.834000       15.9994           0
     29982 TIP3     4211     TIP3     H1       HT       0.417000       1.00800           0
     29983 TIP3     4211     TIP3     H2       HT       0.417000       1.00800           0
     29984 TIP3     4212     TIP3     OH2      OT      -0.834000       15.9994           0
     29985 TIP3     4212     TIP3     H1       HT       0.417000       1.00800           0
     29986 TIP3     4212     TIP3     H2       HT       0.417000       1.00800           0
     29987 TIP3     4213     TIP3     OH2      OT      -0.834000       15.9994           0
     29988 TIP3     4213     TIP3     H1       HT       0.417000       1.00800           0
     29989 TIP3     4213     TIP3     H2       HT       0.417000       1.00800           0
     29990 TIP3     4214     TIP3     OH2      OT      -0.834000       15.9994           0
     29991 TIP3     4214     TIP3     H1       HT       0.417000       1.00800           0
     29992 TIP3     4214     TIP3     H2       HT       0.417000       1.00800           0
     29993 TIP3     4215     TIP3     OH2      OT      -0.834000       15.9994           0
     29994 TIP3     4215     TIP3     H1       HT       0.417000       1.00800           0
     29995 TIP3     4215     TIP3     H2       HT       0.417000       1.00800           0
     29996 TIP3     4216     TIP3     OH2      OT      -0.834000       15.9994           0
     29997 TIP3     4216     TIP3     H1       HT       0.417000       1.00800           0
     29998 TIP3     4216     TIP3     H2       HT       0.417000       1.00800           0
     29999 TIP3     4217     TIP3     OH2      OT      -0.834000       15.9994           0
     30000 TIP3     4217     TIP3     H1       HT       0.417000       1.00800           0
     30001 TIP3     4217     TIP3     H2       HT       0.417000       1.00800           0
     30002 TIP3     4218     TIP3     OH2      OT      -0.834000       15.9994           0
     30003 TIP3     4218     TIP3     H1       HT       0.417000       1.00800           0
     30004 TIP3     4218     TIP3     H2       HT       0.417000       1.00800           0
     30005 TIP3     4219     TIP3     OH2      OT      -0.834000       15.9994           0
     30006 TIP3     4219     TIP3     H1       HT       0.417000       1.00800           0
     30007 TIP3     4219     TIP3     H2       HT       0.417000       1.00800           0
     30008 TIP3     4220     TIP3     OH2      OT      -0.834000       15.9994           0
     30009 TIP3     4220     TIP3     H1       HT       0.417000       1.00800           0
     30010 TIP3     4220     TIP3     H2       HT       0.417000       1.00800           0
     30011 TIP3     4221     TIP3     OH2      OT      -0.834000       15.9994           0
     30012 TIP3     4221     TIP3     H1       HT       0.417000       1.00800           0
     30013 TIP3     4221     TIP3     H2       HT       0.417000       1.00800           0
     30014 TIP3     4222     TIP3     OH2      OT      -0.834000       15.9994           0
     30015 TIP3     4222     TIP3     H1       HT       0.417000       1.00800           0
     30016 TIP3     4222     TIP3     H2       HT       0.417000       1.00800           0
     30017 TIP3     4223     TIP3     OH2      OT      -0.834000       15.9994           0
     30018 TIP3     4223     TIP3     H1       HT       0.417000       1.00800           0
     30019 TIP3     4223     TIP3     H2       HT       0.417000       1.00800           0
     30020 TIP3     4224     TIP3     OH2      OT      -0.834000       15.9994           0
     30021 TIP3     4224     TIP3     H1       HT       0.417000       1.00800           0
     30022 TIP3     4224     TIP3     H2       HT       0.417000       1.00800           0
     30023 TIP3     4225     TIP3     OH2      OT      -0.834000       15.9994           0
     30024 TIP3     4225     TIP3     H1       HT       0.417000       1.00800           0
     30025 TIP3     4225     TIP3     H2       HT       0.417000       1.00800           0
     30026 TIP3     4226     TIP3     OH2      OT      -0.834000       15.9994           0
     30027 TIP3     4226     TIP3     H1       HT       0.417000       1.00800           0
     30028 TIP3     4226     TIP3     H2       HT       0.417000       1.00800           0
     30029 TIP3     4227     TIP3     OH2      OT      -0.834000       15.9994           0
     30030 TIP3     4227     TIP3     H1       HT       0.417000       1.00800           0
     30031 TIP3     4227     TIP3     H2       HT       0.417000       1.00800           0
     30032 TIP3     4228     TIP3     OH2      OT      -0.834000       15.9994           0
     30033 TIP3     4228     TIP3     H1       HT       0.417000       1.00800           0
     30034 TIP3     4228     TIP3     H2       HT       0.417000       1.00800           0
     30035 TIP3     4229     TIP3     OH2      OT      -0.834000       15.9994           0
     30036 TIP3     4229     TIP3     H1       HT       0.417000       1.00800           0
     30037 TIP3     4229     TIP3     H2       HT       0.417000       1.00800           0
     30038 TIP3     4230     TIP3     OH2      OT      -0.834000       15.9994           0
     30039 TIP3     4230     TIP3     H1       HT       0.417000       1.00800           0
     30040 TIP3     4230     TIP3     H2       HT       0.417000       1.00800           0
     30041 TIP3     4231     TIP3     OH2      OT      -0.834000       15.9994           0
     30042 TIP3     4231     TIP3     H1       HT       0.417000       1.00800           0
     30043 TIP3     4231     TIP3     H2       HT       0.417000       1.00800           0
     30044 TIP3     4232     TIP3     OH2      OT      -0.834000       15.9994           0
     30045 TIP3     4232     TIP3     H1       HT       0.417000       1.00800           0
     30046 TIP3     4232     TIP3     H2       HT       0.417000       1.00800           0
     30047 TIP3     4233     TIP3     OH2      OT      -0.834000       15.9994           0
     30048 TIP3     4233     TIP3     H1       HT       0.417000       1.00800           0
     30049 TIP3     4233     TIP3     H2       HT       0.417000       1.00800           0
     30050 TIP3     4234     TIP3     OH2      OT      -0.834000       15.9994           0
     30051 TIP3     4234     TIP3     H1       HT       0.417000       1.00800           0
     30052 TIP3     4234     TIP3     H2       HT       0.417000       1.00800           0
     30053 TIP3     4235     TIP3     OH2      OT      -0.834000       15.9994           0
     30054 TIP3     4235     TIP3     H1       HT       0.417000       1.00800           0
     30055 TIP3     4235     TIP3     H2       HT       0.417000       1.00800           0
     30056 TIP3     4236     TIP3     OH2      OT      -0.834000       15.9994           0
     30057 TIP3     4236     TIP3     H1       HT       0.417000       1.00800           0
     30058 TIP3     4236     TIP3     H2       HT       0.417000       1.00800           0
     30059 TIP3     4237     TIP3     OH2      OT      -0.834000       15.9994           0
     30060 TIP3     4237     TIP3     H1       HT       0.417000       1.00800           0
     30061 TIP3     4237     TIP3     H2       HT       0.417000       1.00800           0
     30062 TIP3     4238     TIP3     OH2      OT      -0.834000       15.9994           0
     30063 TIP3     4238     TIP3     H1       HT       0.417000       1.00800           0
     30064 TIP3     4238     TIP3     H2       HT       0.417000       1.00800           0
     30065 TIP3     4239     TIP3     OH2      OT      -0.834000       15.9994           0
     30066 TIP3     4239     TIP3     H1       HT       0.417000       1.00800           0
     30067 TIP3     4239     TIP3     H2       HT       0.417000       1.00800           0
     30068 TIP3     4240     TIP3     OH2      OT      -0.834000       15.9994           0
     30069 TIP3     4240     TIP3     H1       HT       0.417000       1.00800           0
     30070 TIP3     4240     TIP3     H2       HT       0.417000       1.00800           0
     30071 TIP3     4241     TIP3     OH2      OT      -0.834000       15.9994           0
     30072 TIP3     4241     TIP3     H1       HT       0.417000       1.00800           0
     30073 TIP3     4241     TIP3     H2       HT       0.417000       1.00800           0
     30074 TIP3     4242     TIP3     OH2      OT      -0.834000       15.9994           0
     30075 TIP3     4242     TIP3     H1       HT       0.417000       1.00800           0
     30076 TIP3     4242     TIP3     H2       HT       0.417000       1.00800           0
     30077 TIP3     4243     TIP3     OH2      OT      -0.834000       15.9994           0
     30078 TIP3     4243     TIP3     H1       HT       0.417000       1.00800           0
     30079 TIP3     4243     TIP3     H2       HT       0.417000       1.00800           0
     30080 TIP3     4244     TIP3     OH2      OT      -0.834000       15.9994           0
     30081 TIP3     4244     TIP3     H1       HT       0.417000       1.00800           0
     30082 TIP3     4244     TIP3     H2       HT       0.417000       1.00800           0
     30083 TIP3     4245     TIP3     OH2      OT      -0.834000       15.9994           0
     30084 TIP3     4245     TIP3     H1       HT       0.417000       1.00800           0
     30085 TIP3     4245     TIP3     H2       HT       0.417000       1.00800           0
     30086 TIP3     4246     TIP3     OH2      OT      -0.834000       15.9994           0
     30087 TIP3     4246     TIP3     H1       HT       0.417000       1.00800           0
     30088 TIP3     4246     TIP3     H2       HT       0.417000       1.00800           0
     30089 TIP3     4247     TIP3     OH2      OT      -0.834000       15.9994           0
     30090 TIP3     4247     TIP3     H1       HT       0.417000       1.00800           0
     30091 TIP3     4247     TIP3     H2       HT       0.417000       1.00800           0
     30092 TIP3     4248     TIP3     OH2      OT      -0.834000       15.9994           0
     30093 TIP3     4248     TIP3     H1       HT       0.417000       1.00800           0
     30094 TIP3     4248     TIP3     H2       HT       0.417000       1.00800           0
     30095 TIP3     4249     TIP3     OH2      OT      -0.834000       15.9994           0
     30096 TIP3     4249     TIP3     H1       HT       0.417000       1.00800           0
     30097 TIP3     4249     TIP3     H2       HT       0.417000       1.00800           0
     30098 TIP3     4250     TIP3     OH2      OT      -0.834000       15.9994           0
     30099 TIP3     4250     TIP3     H1       HT       0.417000       1.00800           0
     30100 TIP3     4250     TIP3     H2       HT       0.417000       1.00800           0
     30101 TIP3     4251     TIP3     OH2      OT      -0.834000       15.9994           0
     30102 TIP3     4251     TIP3     H1       HT       0.417000       1.00800           0
     30103 TIP3     4251     TIP3     H2       HT       0.417000       1.00800           0
     30104 TIP3     4252     TIP3     OH2      OT      -0.834000       15.9994           0
     30105 TIP3     4252     TIP3     H1       HT       0.417000       1.00800           0
     30106 TIP3     4252     TIP3     H2       HT       0.417000       1.00800           0
     30107 TIP3     4253     TIP3     OH2      OT      -0.834000       15.9994           0
     30108 TIP3     4253     TIP3     H1       HT       0.417000       1.00800           0
     30109 TIP3     4253     TIP3     H2       HT       0.417000       1.00800           0
     30110 TIP3     4254     TIP3     OH2      OT      -0.834000       15.9994           0
     30111 TIP3     4254     TIP3     H1       HT       0.417000       1.00800           0
     30112 TIP3     4254     TIP3     H2       HT       0.417000       1.00800           0
     30113 TIP3     4255     TIP3     OH2      OT      -0.834000       15.9994           0
     30114 TIP3     4255     TIP3     H1       HT       0.417000       1.00800           0
     30115 TIP3     4255     TIP3     H2       HT       0.417000       1.00800           0
     30116 TIP3     4256     TIP3     OH2      OT      -0.834000       15.9994           0
     30117 TIP3     4256     TIP3     H1       HT       0.417000       1.00800           0
     30118 TIP3     4256     TIP3     H2       HT       0.417000       1.00800           0
     30119 TIP3     4257     TIP3     OH2      OT      -0.834000       15.9994           0
     30120 TIP3     4257     TIP3     H1       HT       0.417000       1.00800           0
     30121 TIP3     4257     TIP3     H2       HT       0.417000       1.00800           0
     30122 TIP3     4258     TIP3     OH2      OT      -0.834000       15.9994           0
     30123 TIP3     4258     TIP3     H1       HT       0.417000       1.00800           0
     30124 TIP3     4258     TIP3     H2       HT       0.417000       1.00800           0
     30125 TIP3     4259     TIP3     OH2      OT      -0.834000       15.9994           0
     30126 TIP3     4259     TIP3     H1       HT       0.417000       1.00800           0
     30127 TIP3     4259     TIP3     H2       HT       0.417000       1.00800           0
     30128 TIP3     4260     TIP3     OH2      OT      -0.834000       15.9994           0
     30129 TIP3     4260     TIP3     H1       HT       0.417000       1.00800           0
     30130 TIP3     4260     TIP3     H2       HT       0.417000       1.00800           0
     30131 TIP3     4261     TIP3     OH2      OT      -0.834000       15.9994           0
     30132 TIP3     4261     TIP3     H1       HT       0.417000       1.00800           0
     30133 TIP3     4261     TIP3     H2       HT       0.417000       1.00800           0
     30134 TIP3     4262     TIP3     OH2      OT      -0.834000       15.9994           0
     30135 TIP3     4262     TIP3     H1       HT       0.417000       1.00800           0
     30136 TIP3     4262     TIP3     H2       HT       0.417000       1.00800           0
     30137 TIP3     4263     TIP3     OH2      OT      -0.834000       15.9994           0
     30138 TIP3     4263     TIP3     H1       HT       0.417000       1.00800           0
     30139 TIP3     4263     TIP3     H2       HT       0.417000       1.00800           0
     30140 TIP3     4264     TIP3     OH2      OT      -0.834000       15.9994           0
     30141 TIP3     4264     TIP3     H1       HT       0.417000       1.00800           0
     30142 TIP3     4264     TIP3     H2       HT       0.417000       1.00800           0
     30143 TIP3     4265     TIP3     OH2      OT      -0.834000       15.9994           0
     30144 TIP3     4265     TIP3     H1       HT       0.417000       1.00800           0
     30145 TIP3     4265     TIP3     H2       HT       0.417000       1.00800           0
     30146 TIP3     4266     TIP3     OH2      OT      -0.834000       15.9994           0
     30147 TIP3     4266     TIP3     H1       HT       0.417000       1.00800           0
     30148 TIP3     4266     TIP3     H2       HT       0.417000       1.00800           0
     30149 TIP3     4267     TIP3     OH2      OT      -0.834000       15.9994           0
     30150 TIP3     4267     TIP3     H1       HT       0.417000       1.00800           0
     30151 TIP3     4267     TIP3     H2       HT       0.417000       1.00800           0
     30152 TIP3     4268     TIP3     OH2      OT      -0.834000       15.9994           0
     30153 TIP3     4268     TIP3     H1       HT       0.417000       1.00800           0
     30154 TIP3     4268     TIP3     H2       HT       0.417000       1.00800           0
     30155 TIP3     4269     TIP3     OH2      OT      -0.834000       15.9994           0
     30156 TIP3     4269     TIP3     H1       HT       0.417000       1.00800           0
     30157 TIP3     4269     TIP3     H2       HT       0.417000       1.00800           0
     30158 TIP3     4270     TIP3     OH2      OT      -0.834000       15.9994           0
     30159 TIP3     4270     TIP3     H1       HT       0.417000       1.00800           0
     30160 TIP3     4270     TIP3     H2       HT       0.417000       1.00800           0
     30161 TIP3     4271     TIP3     OH2      OT      -0.834000       15.9994           0
     30162 TIP3     4271     TIP3     H1       HT       0.417000       1.00800           0
     30163 TIP3     4271     TIP3     H2       HT       0.417000       1.00800           0
     30164 TIP3     4272     TIP3     OH2      OT      -0.834000       15.9994           0
     30165 TIP3     4272     TIP3     H1       HT       0.417000       1.00800           0
     30166 TIP3     4272     TIP3     H2       HT       0.417000       1.00800           0
     30167 TIP3     4273     TIP3     OH2      OT      -0.834000       15.9994           0
     30168 TIP3     4273     TIP3     H1       HT       0.417000       1.00800           0
     30169 TIP3     4273     TIP3     H2       HT       0.417000       1.00800           0
     30170 TIP3     4274     TIP3     OH2      OT      -0.834000       15.9994           0
     30171 TIP3     4274     TIP3     H1       HT       0.417000       1.00800           0
     30172 TIP3     4274     TIP3     H2       HT       0.417000       1.00800           0
     30173 TIP3     4275     TIP3     OH2      OT      -0.834000       15.9994           0
     30174 TIP3     4275     TIP3     H1       HT       0.417000       1.00800           0
     30175 TIP3     4275     TIP3     H2       HT       0.417000       1.00800           0
     30176 TIP3     4276     TIP3     OH2      OT      -0.834000       15.9994           0
     30177 TIP3     4276     TIP3     H1       HT       0.417000       1.00800           0
     30178 TIP3     4276     TIP3     H2       HT       0.417000       1.00800           0
     30179 TIP3     4277     TIP3     OH2      OT      -0.834000       15.9994           0
     30180 TIP3     4277     TIP3     H1       HT       0.417000       1.00800           0
     30181 TIP3     4277     TIP3     H2       HT       0.417000       1.00800           0
     30182 TIP3     4278     TIP3     OH2      OT      -0.834000       15.9994           0
     30183 TIP3     4278     TIP3     H1       HT       0.417000       1.00800           0
     30184 TIP3     4278     TIP3     H2       HT       0.417000       1.00800           0
     30185 TIP3     4279     TIP3     OH2      OT      -0.834000       15.9994           0
     30186 TIP3     4279     TIP3     H1       HT       0.417000       1.00800           0
     30187 TIP3     4279     TIP3     H2       HT       0.417000       1.00800           0
     30188 TIP3     4280     TIP3     OH2      OT      -0.834000       15.9994           0
     30189 TIP3     4280     TIP3     H1       HT       0.417000       1.00800           0
     30190 TIP3     4280     TIP3     H2       HT       0.417000       1.00800           0
     30191 TIP3     4281     TIP3     OH2      OT      -0.834000       15.9994           0
     30192 TIP3     4281     TIP3     H1       HT       0.417000       1.00800           0
     30193 TIP3     4281     TIP3     H2       HT       0.417000       1.00800           0
     30194 TIP3     4282     TIP3     OH2      OT      -0.834000       15.9994           0
     30195 TIP3     4282     TIP3     H1       HT       0.417000       1.00800           0
     30196 TIP3     4282     TIP3     H2       HT       0.417000       1.00800           0
     30197 TIP3     4283     TIP3     OH2      OT      -0.834000       15.9994           0
     30198 TIP3     4283     TIP3     H1       HT       0.417000       1.00800           0
     30199 TIP3     4283     TIP3     H2       HT       0.417000       1.00800           0
     30200 TIP3     4284     TIP3     OH2      OT      -0.834000       15.9994           0
     30201 TIP3     4284     TIP3     H1       HT       0.417000       1.00800           0
     30202 TIP3     4284     TIP3     H2       HT       0.417000       1.00800           0
     30203 TIP3     4285     TIP3     OH2      OT      -0.834000       15.9994           0
     30204 TIP3     4285     TIP3     H1       HT       0.417000       1.00800           0
     30205 TIP3     4285     TIP3     H2       HT       0.417000       1.00800           0
     30206 TIP3     4286     TIP3     OH2      OT      -0.834000       15.9994           0
     30207 TIP3     4286     TIP3     H1       HT       0.417000       1.00800           0
     30208 TIP3     4286     TIP3     H2       HT       0.417000       1.00800           0
     30209 TIP3     4287     TIP3     OH2      OT      -0.834000       15.9994           0
     30210 TIP3     4287     TIP3     H1       HT       0.417000       1.00800           0
     30211 TIP3     4287     TIP3     H2       HT       0.417000       1.00800           0
     30212 TIP3     4288     TIP3     OH2      OT      -0.834000       15.9994           0
     30213 TIP3     4288     TIP3     H1       HT       0.417000       1.00800           0
     30214 TIP3     4288     TIP3     H2       HT       0.417000       1.00800           0
     30215 TIP3     4289     TIP3     OH2      OT      -0.834000       15.9994           0
     30216 TIP3     4289     TIP3     H1       HT       0.417000       1.00800           0
     30217 TIP3     4289     TIP3     H2       HT       0.417000       1.00800           0
     30218 TIP3     4290     TIP3     OH2      OT      -0.834000       15.9994           0
     30219 TIP3     4290     TIP3     H1       HT       0.417000       1.00800           0
     30220 TIP3     4290     TIP3     H2       HT       0.417000       1.00800           0
     30221 TIP3     4291     TIP3     OH2      OT      -0.834000       15.9994           0
     30222 TIP3     4291     TIP3     H1       HT       0.417000       1.00800           0
     30223 TIP3     4291     TIP3     H2       HT       0.417000       1.00800           0
     30224 TIP3     4292     TIP3     OH2      OT      -0.834000       15.9994           0
     30225 TIP3     4292     TIP3     H1       HT       0.417000       1.00800           0
     30226 TIP3     4292     TIP3     H2       HT       0.417000       1.00800           0
     30227 TIP3     4293     TIP3     OH2      OT      -0.834000       15.9994           0
     30228 TIP3     4293     TIP3     H1       HT       0.417000       1.00800           0
     30229 TIP3     4293     TIP3     H2       HT       0.417000       1.00800           0
     30230 TIP3     4294     TIP3     OH2      OT      -0.834000       15.9994           0
     30231 TIP3     4294     TIP3     H1       HT       0.417000       1.00800           0
     30232 TIP3     4294     TIP3     H2       HT       0.417000       1.00800           0
     30233 TIP3     4295     TIP3     OH2      OT      -0.834000       15.9994           0
     30234 TIP3     4295     TIP3     H1       HT       0.417000       1.00800           0
     30235 TIP3     4295     TIP3     H2       HT       0.417000       1.00800           0
     30236 TIP3     4296     TIP3     OH2      OT      -0.834000       15.9994           0
     30237 TIP3     4296     TIP3     H1       HT       0.417000       1.00800           0
     30238 TIP3     4296     TIP3     H2       HT       0.417000       1.00800           0
     30239 TIP3     4297     TIP3     OH2      OT      -0.834000       15.9994           0
     30240 TIP3     4297     TIP3     H1       HT       0.417000       1.00800           0
     30241 TIP3     4297     TIP3     H2       HT       0.417000       1.00800           0
     30242 TIP3     4298     TIP3     OH2      OT      -0.834000       15.9994           0
     30243 TIP3     4298     TIP3     H1       HT       0.417000       1.00800           0
     30244 TIP3     4298     TIP3     H2       HT       0.417000       1.00800           0
     30245 TIP3     4299     TIP3     OH2      OT      -0.834000       15.9994           0
     30246 TIP3     4299     TIP3     H1       HT       0.417000       1.00800           0
     30247 TIP3     4299     TIP3     H2       HT       0.417000       1.00800           0
     30248 TIP3     4300     TIP3     OH2      OT      -0.834000       15.9994           0
     30249 TIP3     4300     TIP3     H1       HT       0.417000       1.00800           0
     30250 TIP3     4300     TIP3     H2       HT       0.417000       1.00800           0
     30251 TIP3     4301     TIP3     OH2      OT      -0.834000       15.9994           0
     30252 TIP3     4301     TIP3     H1       HT       0.417000       1.00800           0
     30253 TIP3     4301     TIP3     H2       HT       0.417000       1.00800           0
     30254 TIP3     4302     TIP3     OH2      OT      -0.834000       15.9994           0
     30255 TIP3     4302     TIP3     H1       HT       0.417000       1.00800           0
     30256 TIP3     4302     TIP3     H2       HT       0.417000       1.00800           0
     30257 TIP3     4303     TIP3     OH2      OT      -0.834000       15.9994           0
     30258 TIP3     4303     TIP3     H1       HT       0.417000       1.00800           0
     30259 TIP3     4303     TIP3     H2       HT       0.417000       1.00800           0
     30260 TIP3     4304     TIP3     OH2      OT      -0.834000       15.9994           0
     30261 TIP3     4304     TIP3     H1       HT       0.417000       1.00800           0
     30262 TIP3     4304     TIP3     H2       HT       0.417000       1.00800           0
     30263 TIP3     4305     TIP3     OH2      OT      -0.834000       15.9994           0
     30264 TIP3     4305     TIP3     H1       HT       0.417000       1.00800           0
     30265 TIP3     4305     TIP3     H2       HT       0.417000       1.00800           0
     30266 TIP3     4306     TIP3     OH2      OT      -0.834000       15.9994           0
     30267 TIP3     4306     TIP3     H1       HT       0.417000       1.00800           0
     30268 TIP3     4306     TIP3     H2       HT       0.417000       1.00800           0
     30269 TIP3     4307     TIP3     OH2      OT      -0.834000       15.9994           0
     30270 TIP3     4307     TIP3     H1       HT       0.417000       1.00800           0
     30271 TIP3     4307     TIP3     H2       HT       0.417000       1.00800           0
     30272 TIP3     4308     TIP3     OH2      OT      -0.834000       15.9994           0
     30273 TIP3     4308     TIP3     H1       HT       0.417000       1.00800           0
     30274 TIP3     4308     TIP3     H2       HT       0.417000       1.00800           0
     30275 TIP3     4309     TIP3     OH2      OT      -0.834000       15.9994           0
     30276 TIP3     4309     TIP3     H1       HT       0.417000       1.00800           0
     30277 TIP3     4309     TIP3     H2       HT       0.417000       1.00800           0
     30278 TIP3     4310     TIP3     OH2      OT      -0.834000       15.9994           0
     30279 TIP3     4310     TIP3     H1       HT       0.417000       1.00800           0
     30280 TIP3     4310     TIP3     H2       HT       0.417000       1.00800           0
     30281 TIP3     4311     TIP3     OH2      OT      -0.834000       15.9994           0
     30282 TIP3     4311     TIP3     H1       HT       0.417000       1.00800           0
     30283 TIP3     4311     TIP3     H2       HT       0.417000       1.00800           0
     30284 TIP3     4312     TIP3     OH2      OT      -0.834000       15.9994           0
     30285 TIP3     4312     TIP3     H1       HT       0.417000       1.00800           0
     30286 TIP3     4312     TIP3     H2       HT       0.417000       1.00800           0
     30287 TIP3     4313     TIP3     OH2      OT      -0.834000       15.9994           0
     30288 TIP3     4313     TIP3     H1       HT       0.417000       1.00800           0
     30289 TIP3     4313     TIP3     H2       HT       0.417000       1.00800           0
     30290 TIP3     4314     TIP3     OH2      OT      -0.834000       15.9994           0
     30291 TIP3     4314     TIP3     H1       HT       0.417000       1.00800           0
     30292 TIP3     4314     TIP3     H2       HT       0.417000       1.00800           0
     30293 TIP3     4315     TIP3     OH2      OT      -0.834000       15.9994           0
     30294 TIP3     4315     TIP3     H1       HT       0.417000       1.00800           0
     30295 TIP3     4315     TIP3     H2       HT       0.417000       1.00800           0
     30296 TIP3     4316     TIP3     OH2      OT      -0.834000       15.9994           0
     30297 TIP3     4316     TIP3     H1       HT       0.417000       1.00800           0
     30298 TIP3     4316     TIP3     H2       HT       0.417000       1.00800           0
     30299 TIP3     4317     TIP3     OH2      OT      -0.834000       15.9994           0
     30300 TIP3     4317     TIP3     H1       HT       0.417000       1.00800           0
     30301 TIP3     4317     TIP3     H2       HT       0.417000       1.00800           0
     30302 TIP3     4318     TIP3     OH2      OT      -0.834000       15.9994           0
     30303 TIP3     4318     TIP3     H1       HT       0.417000       1.00800           0
     30304 TIP3     4318     TIP3     H2       HT       0.417000       1.00800           0
     30305 TIP3     4319     TIP3     OH2      OT      -0.834000       15.9994           0
     30306 TIP3     4319     TIP3     H1       HT       0.417000       1.00800           0
     30307 TIP3     4319     TIP3     H2       HT       0.417000       1.00800           0
     30308 TIP3     4320     TIP3     OH2      OT      -0.834000       15.9994           0
     30309 TIP3     4320     TIP3     H1       HT       0.417000       1.00800           0
     30310 TIP3     4320     TIP3     H2       HT       0.417000       1.00800           0
     30311 TIP3     4321     TIP3     OH2      OT      -0.834000       15.9994           0
     30312 TIP3     4321     TIP3     H1       HT       0.417000       1.00800           0
     30313 TIP3     4321     TIP3     H2       HT       0.417000       1.00800           0
     30314 TIP3     4322     TIP3     OH2      OT      -0.834000       15.9994           0
     30315 TIP3     4322     TIP3     H1       HT       0.417000       1.00800           0
     30316 TIP3     4322     TIP3     H2       HT       0.417000       1.00800           0
     30317 TIP3     4323     TIP3     OH2      OT      -0.834000       15.9994           0
     30318 TIP3     4323     TIP3     H1       HT       0.417000       1.00800           0
     30319 TIP3     4323     TIP3     H2       HT       0.417000       1.00800           0
     30320 TIP3     4324     TIP3     OH2      OT      -0.834000       15.9994           0
     30321 TIP3     4324     TIP3     H1       HT       0.417000       1.00800           0
     30322 TIP3     4324     TIP3     H2       HT       0.417000       1.00800           0
     30323 TIP3     4325     TIP3     OH2      OT      -0.834000       15.9994           0
     30324 TIP3     4325     TIP3     H1       HT       0.417000       1.00800           0
     30325 TIP3     4325     TIP3     H2       HT       0.417000       1.00800           0
     30326 TIP3     4326     TIP3     OH2      OT      -0.834000       15.9994           0
     30327 TIP3     4326     TIP3     H1       HT       0.417000       1.00800           0
     30328 TIP3     4326     TIP3     H2       HT       0.417000       1.00800           0
     30329 TIP3     4327     TIP3     OH2      OT      -0.834000       15.9994           0
     30330 TIP3     4327     TIP3     H1       HT       0.417000       1.00800           0
     30331 TIP3     4327     TIP3     H2       HT       0.417000       1.00800           0
     30332 TIP3     4328     TIP3     OH2      OT      -0.834000       15.9994           0
     30333 TIP3     4328     TIP3     H1       HT       0.417000       1.00800           0
     30334 TIP3     4328     TIP3     H2       HT       0.417000       1.00800           0
     30335 TIP3     4329     TIP3     OH2      OT      -0.834000       15.9994           0
     30336 TIP3     4329     TIP3     H1       HT       0.417000       1.00800           0
     30337 TIP3     4329     TIP3     H2       HT       0.417000       1.00800           0
     30338 TIP3     4330     TIP3     OH2      OT      -0.834000       15.9994           0
     30339 TIP3     4330     TIP3     H1       HT       0.417000       1.00800           0
     30340 TIP3     4330     TIP3     H2       HT       0.417000       1.00800           0
     30341 TIP3     4331     TIP3     OH2      OT      -0.834000       15.9994           0
     30342 TIP3     4331     TIP3     H1       HT       0.417000       1.00800           0
     30343 TIP3     4331     TIP3     H2       HT       0.417000       1.00800           0
     30344 TIP3     4332     TIP3     OH2      OT      -0.834000       15.9994           0
     30345 TIP3     4332     TIP3     H1       HT       0.417000       1.00800           0
     30346 TIP3     4332     TIP3     H2       HT       0.417000       1.00800           0
     30347 TIP3     4333     TIP3     OH2      OT      -0.834000       15.9994           0
     30348 TIP3     4333     TIP3     H1       HT       0.417000       1.00800           0
     30349 TIP3     4333     TIP3     H2       HT       0.417000       1.00800           0
     30350 TIP3     4334     TIP3     OH2      OT      -0.834000       15.9994           0
     30351 TIP3     4334     TIP3     H1       HT       0.417000       1.00800           0
     30352 TIP3     4334     TIP3     H2       HT       0.417000       1.00800           0
     30353 TIP3     4335     TIP3     OH2      OT      -0.834000       15.9994           0
     30354 TIP3     4335     TIP3     H1       HT       0.417000       1.00800           0
     30355 TIP3     4335     TIP3     H2       HT       0.417000       1.00800           0
     30356 TIP3     4336     TIP3     OH2      OT      -0.834000       15.9994           0
     30357 TIP3     4336     TIP3     H1       HT       0.417000       1.00800           0
     30358 TIP3     4336     TIP3     H2       HT       0.417000       1.00800           0
     30359 TIP3     4337     TIP3     OH2      OT      -0.834000       15.9994           0
     30360 TIP3     4337     TIP3     H1       HT       0.417000       1.00800           0
     30361 TIP3     4337     TIP3     H2       HT       0.417000       1.00800           0
     30362 TIP3     4338     TIP3     OH2      OT      -0.834000       15.9994           0
     30363 TIP3     4338     TIP3     H1       HT       0.417000       1.00800           0
     30364 TIP3     4338     TIP3     H2       HT       0.417000       1.00800           0
     30365 TIP3     4339     TIP3     OH2      OT      -0.834000       15.9994           0
     30366 TIP3     4339     TIP3     H1       HT       0.417000       1.00800           0
     30367 TIP3     4339     TIP3     H2       HT       0.417000       1.00800           0
     30368 TIP3     4340     TIP3     OH2      OT      -0.834000       15.9994           0
     30369 TIP3     4340     TIP3     H1       HT       0.417000       1.00800           0
     30370 TIP3     4340     TIP3     H2       HT       0.417000       1.00800           0
     30371 TIP3     4341     TIP3     OH2      OT      -0.834000       15.9994           0
     30372 TIP3     4341     TIP3     H1       HT       0.417000       1.00800           0
     30373 TIP3     4341     TIP3     H2       HT       0.417000       1.00800           0
     30374 TIP3     4342     TIP3     OH2      OT      -0.834000       15.9994           0
     30375 TIP3     4342     TIP3     H1       HT       0.417000       1.00800           0
     30376 TIP3     4342     TIP3     H2       HT       0.417000       1.00800           0
     30377 TIP3     4343     TIP3     OH2      OT      -0.834000       15.9994           0
     30378 TIP3     4343     TIP3     H1       HT       0.417000       1.00800           0
     30379 TIP3     4343     TIP3     H2       HT       0.417000       1.00800           0
     30380 TIP3     4344     TIP3     OH2      OT      -0.834000       15.9994           0
     30381 TIP3     4344     TIP3     H1       HT       0.417000       1.00800           0
     30382 TIP3     4344     TIP3     H2       HT       0.417000       1.00800           0
     30383 TIP3     4345     TIP3     OH2      OT      -0.834000       15.9994           0
     30384 TIP3     4345     TIP3     H1       HT       0.417000       1.00800           0
     30385 TIP3     4345     TIP3     H2       HT       0.417000       1.00800           0
     30386 TIP3     4346     TIP3     OH2      OT      -0.834000       15.9994           0
     30387 TIP3     4346     TIP3     H1       HT       0.417000       1.00800           0
     30388 TIP3     4346     TIP3     H2       HT       0.417000       1.00800           0
     30389 TIP3     4347     TIP3     OH2      OT      -0.834000       15.9994           0
     30390 TIP3     4347     TIP3     H1       HT       0.417000       1.00800           0
     30391 TIP3     4347     TIP3     H2       HT       0.417000       1.00800           0
     30392 TIP3     4348     TIP3     OH2      OT      -0.834000       15.9994           0
     30393 TIP3     4348     TIP3     H1       HT       0.417000       1.00800           0
     30394 TIP3     4348     TIP3     H2       HT       0.417000       1.00800           0
     30395 TIP3     4349     TIP3     OH2      OT      -0.834000       15.9994           0
     30396 TIP3     4349     TIP3     H1       HT       0.417000       1.00800           0
     30397 TIP3     4349     TIP3     H2       HT       0.417000       1.00800           0
     30398 TIP3     4350     TIP3     OH2      OT      -0.834000       15.9994           0
     30399 TIP3     4350     TIP3     H1       HT       0.417000       1.00800           0
     30400 TIP3     4350     TIP3     H2       HT       0.417000       1.00800           0
     30401 TIP3     4351     TIP3     OH2      OT      -0.834000       15.9994           0
     30402 TIP3     4351     TIP3     H1       HT       0.417000       1.00800           0
     30403 TIP3     4351     TIP3     H2       HT       0.417000       1.00800           0
     30404 TIP3     4352     TIP3     OH2      OT      -0.834000       15.9994           0
     30405 TIP3     4352     TIP3     H1       HT       0.417000       1.00800           0
     30406 TIP3     4352     TIP3     H2       HT       0.417000       1.00800           0
     30407 TIP3     4353     TIP3     OH2      OT      -0.834000       15.9994           0
     30408 TIP3     4353     TIP3     H1       HT       0.417000       1.00800           0
     30409 TIP3     4353     TIP3     H2       HT       0.417000       1.00800           0
     30410 TIP3     4354     TIP3     OH2      OT      -0.834000       15.9994           0
     30411 TIP3     4354     TIP3     H1       HT       0.417000       1.00800           0
     30412 TIP3     4354     TIP3     H2       HT       0.417000       1.00800           0
     30413 TIP3     4355     TIP3     OH2      OT      -0.834000       15.9994           0
     30414 TIP3     4355     TIP3     H1       HT       0.417000       1.00800           0
     30415 TIP3     4355     TIP3     H2       HT       0.417000       1.00800           0
     30416 TIP3     4356     TIP3     OH2      OT      -0.834000       15.9994           0
     30417 TIP3     4356     TIP3     H1       HT       0.417000       1.00800           0
     30418 TIP3     4356     TIP3     H2       HT       0.417000       1.00800           0
     30419 TIP3     4357     TIP3     OH2      OT      -0.834000       15.9994           0
     30420 TIP3     4357     TIP3     H1       HT       0.417000       1.00800           0
     30421 TIP3     4357     TIP3     H2       HT       0.417000       1.00800           0
     30422 TIP3     4358     TIP3     OH2      OT      -0.834000       15.9994           0
     30423 TIP3     4358     TIP3     H1       HT       0.417000       1.00800           0
     30424 TIP3     4358     TIP3     H2       HT       0.417000       1.00800           0
     30425 TIP3     4359     TIP3     OH2      OT      -0.834000       15.9994           0
     30426 TIP3     4359     TIP3     H1       HT       0.417000       1.00800           0
     30427 TIP3     4359     TIP3     H2       HT       0.417000       1.00800           0
     30428 TIP3     4360     TIP3     OH2      OT      -0.834000       15.9994           0
     30429 TIP3     4360     TIP3     H1       HT       0.417000       1.00800           0
     30430 TIP3     4360     TIP3     H2       HT       0.417000       1.00800           0
     30431 TIP3     4361     TIP3     OH2      OT      -0.834000       15.9994           0
     30432 TIP3     4361     TIP3     H1       HT       0.417000       1.00800           0
     30433 TIP3     4361     TIP3     H2       HT       0.417000       1.00800           0
     30434 TIP3     4362     TIP3     OH2      OT      -0.834000       15.9994           0
     30435 TIP3     4362     TIP3     H1       HT       0.417000       1.00800           0
     30436 TIP3     4362     TIP3     H2       HT       0.417000       1.00800           0
     30437 TIP3     4363     TIP3     OH2      OT      -0.834000       15.9994           0
     30438 TIP3     4363     TIP3     H1       HT       0.417000       1.00800           0
     30439 TIP3     4363     TIP3     H2       HT       0.417000       1.00800           0
     30440 TIP3     4364     TIP3     OH2      OT      -0.834000       15.9994           0
     30441 TIP3     4364     TIP3     H1       HT       0.417000       1.00800           0
     30442 TIP3     4364     TIP3     H2       HT       0.417000       1.00800           0
     30443 TIP3     4365     TIP3     OH2      OT      -0.834000       15.9994           0
     30444 TIP3     4365     TIP3     H1       HT       0.417000       1.00800           0
     30445 TIP3     4365     TIP3     H2       HT       0.417000       1.00800           0
     30446 TIP3     4366     TIP3     OH2      OT      -0.834000       15.9994           0
     30447 TIP3     4366     TIP3     H1       HT       0.417000       1.00800           0
     30448 TIP3     4366     TIP3     H2       HT       0.417000       1.00800           0
     30449 TIP3     4367     TIP3     OH2      OT      -0.834000       15.9994           0
     30450 TIP3     4367     TIP3     H1       HT       0.417000       1.00800           0
     30451 TIP3     4367     TIP3     H2       HT       0.417000       1.00800           0
     30452 TIP3     4368     TIP3     OH2      OT      -0.834000       15.9994           0
     30453 TIP3     4368     TIP3     H1       HT       0.417000       1.00800           0
     30454 TIP3     4368     TIP3     H2       HT       0.417000       1.00800           0
     30455 TIP3     4369     TIP3     OH2      OT      -0.834000       15.9994           0
     30456 TIP3     4369     TIP3     H1       HT       0.417000       1.00800           0
     30457 TIP3     4369     TIP3     H2       HT       0.417000       1.00800           0
     30458 TIP3     4370     TIP3     OH2      OT      -0.834000       15.9994           0
     30459 TIP3     4370     TIP3     H1       HT       0.417000       1.00800           0
     30460 TIP3     4370     TIP3     H2       HT       0.417000       1.00800           0
     30461 TIP3     4371     TIP3     OH2      OT      -0.834000       15.9994           0
     30462 TIP3     4371     TIP3     H1       HT       0.417000       1.00800           0
     30463 TIP3     4371     TIP3     H2       HT       0.417000       1.00800           0
     30464 TIP3     4372     TIP3     OH2      OT      -0.834000       15.9994           0
     30465 TIP3     4372     TIP3     H1       HT       0.417000       1.00800           0
     30466 TIP3     4372     TIP3     H2       HT       0.417000       1.00800           0
     30467 TIP3     4373     TIP3     OH2      OT      -0.834000       15.9994           0
     30468 TIP3     4373     TIP3     H1       HT       0.417000       1.00800           0
     30469 TIP3     4373     TIP3     H2       HT       0.417000       1.00800           0
     30470 TIP3     4374     TIP3     OH2      OT      -0.834000       15.9994           0
     30471 TIP3     4374     TIP3     H1       HT       0.417000       1.00800           0
     30472 TIP3     4374     TIP3     H2       HT       0.417000       1.00800           0
     30473 TIP3     4375     TIP3     OH2      OT      -0.834000       15.9994           0
     30474 TIP3     4375     TIP3     H1       HT       0.417000       1.00800           0
     30475 TIP3     4375     TIP3     H2       HT       0.417000       1.00800           0
     30476 TIP3     4376     TIP3     OH2      OT      -0.834000       15.9994           0
     30477 TIP3     4376     TIP3     H1       HT       0.417000       1.00800           0
     30478 TIP3     4376     TIP3     H2       HT       0.417000       1.00800           0
     30479 TIP3     4377     TIP3     OH2      OT      -0.834000       15.9994           0
     30480 TIP3     4377     TIP3     H1       HT       0.417000       1.00800           0
     30481 TIP3     4377     TIP3     H2       HT       0.417000       1.00800           0
     30482 TIP3     4378     TIP3     OH2      OT      -0.834000       15.9994           0
     30483 TIP3     4378     TIP3     H1       HT       0.417000       1.00800           0
     30484 TIP3     4378     TIP3     H2       HT       0.417000       1.00800           0
     30485 TIP3     4379     TIP3     OH2      OT      -0.834000       15.9994           0
     30486 TIP3     4379     TIP3     H1       HT       0.417000       1.00800           0
     30487 TIP3     4379     TIP3     H2       HT       0.417000       1.00800           0
     30488 TIP3     4380     TIP3     OH2      OT      -0.834000       15.9994           0
     30489 TIP3     4380     TIP3     H1       HT       0.417000       1.00800           0
     30490 TIP3     4380     TIP3     H2       HT       0.417000       1.00800           0
     30491 TIP3     4381     TIP3     OH2      OT      -0.834000       15.9994           0
     30492 TIP3     4381     TIP3     H1       HT       0.417000       1.00800           0
     30493 TIP3     4381     TIP3     H2       HT       0.417000       1.00800           0
     30494 TIP3     4382     TIP3     OH2      OT      -0.834000       15.9994           0
     30495 TIP3     4382     TIP3     H1       HT       0.417000       1.00800           0
     30496 TIP3     4382     TIP3     H2       HT       0.417000       1.00800           0
     30497 TIP3     4383     TIP3     OH2      OT      -0.834000       15.9994           0
     30498 TIP3     4383     TIP3     H1       HT       0.417000       1.00800           0
     30499 TIP3     4383     TIP3     H2       HT       0.417000       1.00800           0
     30500 TIP3     4384     TIP3     OH2      OT      -0.834000       15.9994           0
     30501 TIP3     4384     TIP3     H1       HT       0.417000       1.00800           0
     30502 TIP3     4384     TIP3     H2       HT       0.417000       1.00800           0
     30503 TIP3     4385     TIP3     OH2      OT      -0.834000       15.9994           0
     30504 TIP3     4385     TIP3     H1       HT       0.417000       1.00800           0
     30505 TIP3     4385     TIP3     H2       HT       0.417000       1.00800           0
     30506 TIP3     4386     TIP3     OH2      OT      -0.834000       15.9994           0
     30507 TIP3     4386     TIP3     H1       HT       0.417000       1.00800           0
     30508 TIP3     4386     TIP3     H2       HT       0.417000       1.00800           0
     30509 TIP3     4387     TIP3     OH2      OT      -0.834000       15.9994           0
     30510 TIP3     4387     TIP3     H1       HT       0.417000       1.00800           0
     30511 TIP3     4387     TIP3     H2       HT       0.417000       1.00800           0
     30512 TIP3     4388     TIP3     OH2      OT      -0.834000       15.9994           0
     30513 TIP3     4388     TIP3     H1       HT       0.417000       1.00800           0
     30514 TIP3     4388     TIP3     H2       HT       0.417000       1.00800           0
     30515 TIP3     4389     TIP3     OH2      OT      -0.834000       15.9994           0
     30516 TIP3     4389     TIP3     H1       HT       0.417000       1.00800           0
     30517 TIP3     4389     TIP3     H2       HT       0.417000       1.00800           0
     30518 TIP3     4390     TIP3     OH2      OT      -0.834000       15.9994           0
     30519 TIP3     4390     TIP3     H1       HT       0.417000       1.00800           0
     30520 TIP3     4390     TIP3     H2       HT       0.417000       1.00800           0
     30521 TIP3     4391     TIP3     OH2      OT      -0.834000       15.9994           0
     30522 TIP3     4391     TIP3     H1       HT       0.417000       1.00800           0
     30523 TIP3     4391     TIP3     H2       HT       0.417000       1.00800           0
     30524 TIP3     4392     TIP3     OH2      OT      -0.834000       15.9994           0
     30525 TIP3     4392     TIP3     H1       HT       0.417000       1.00800           0
     30526 TIP3     4392     TIP3     H2       HT       0.417000       1.00800           0
     30527 TIP3     4393     TIP3     OH2      OT      -0.834000       15.9994           0
     30528 TIP3     4393     TIP3     H1       HT       0.417000       1.00800           0
     30529 TIP3     4393     TIP3     H2       HT       0.417000       1.00800           0
     30530 TIP3     4394     TIP3     OH2      OT      -0.834000       15.9994           0
     30531 TIP3     4394     TIP3     H1       HT       0.417000       1.00800           0
     30532 TIP3     4394     TIP3     H2       HT       0.417000       1.00800           0
     30533 TIP3     4395     TIP3     OH2      OT      -0.834000       15.9994           0
     30534 TIP3     4395     TIP3     H1       HT       0.417000       1.00800           0
     30535 TIP3     4395     TIP3     H2       HT       0.417000       1.00800           0
     30536 TIP3     4396     TIP3     OH2      OT      -0.834000       15.9994           0
     30537 TIP3     4396     TIP3     H1       HT       0.417000       1.00800           0
     30538 TIP3     4396     TIP3     H2       HT       0.417000       1.00800           0
     30539 TIP3     4397     TIP3     OH2      OT      -0.834000       15.9994           0
     30540 TIP3     4397     TIP3     H1       HT       0.417000       1.00800           0
     30541 TIP3     4397     TIP3     H2       HT       0.417000       1.00800           0
     30542 TIP3     4398     TIP3     OH2      OT      -0.834000       15.9994           0
     30543 TIP3     4398     TIP3     H1       HT       0.417000       1.00800           0
     30544 TIP3     4398     TIP3     H2       HT       0.417000       1.00800           0
     30545 TIP3     4399     TIP3     OH2      OT      -0.834000       15.9994           0
     30546 TIP3     4399     TIP3     H1       HT       0.417000       1.00800           0
     30547 TIP3     4399     TIP3     H2       HT       0.417000       1.00800           0
     30548 TIP3     4400     TIP3     OH2      OT      -0.834000       15.9994           0
     30549 TIP3     4400     TIP3     H1       HT       0.417000       1.00800           0
     30550 TIP3     4400     TIP3     H2       HT       0.417000       1.00800           0
     30551 TIP3     4401     TIP3     OH2      OT      -0.834000       15.9994           0
     30552 TIP3     4401     TIP3     H1       HT       0.417000       1.00800           0
     30553 TIP3     4401     TIP3     H2       HT       0.417000       1.00800           0
     30554 TIP3     4402     TIP3     OH2      OT      -0.834000       15.9994           0
     30555 TIP3     4402     TIP3     H1       HT       0.417000       1.00800           0
     30556 TIP3     4402     TIP3     H2       HT       0.417000       1.00800           0
     30557 TIP3     4403     TIP3     OH2      OT      -0.834000       15.9994           0
     30558 TIP3     4403     TIP3     H1       HT       0.417000       1.00800           0
     30559 TIP3     4403     TIP3     H2       HT       0.417000       1.00800           0
     30560 TIP3     4404     TIP3     OH2      OT      -0.834000       15.9994           0
     30561 TIP3     4404     TIP3     H1       HT       0.417000       1.00800           0
     30562 TIP3     4404     TIP3     H2       HT       0.417000       1.00800           0
     30563 TIP3     4405     TIP3     OH2      OT      -0.834000       15.9994           0
     30564 TIP3     4405     TIP3     H1       HT       0.417000       1.00800           0
     30565 TIP3     4405     TIP3     H2       HT       0.417000       1.00800           0
     30566 TIP3     4406     TIP3     OH2      OT      -0.834000       15.9994           0
     30567 TIP3     4406     TIP3     H1       HT       0.417000       1.00800           0
     30568 TIP3     4406     TIP3     H2       HT       0.417000       1.00800           0
     30569 TIP3     4407     TIP3     OH2      OT      -0.834000       15.9994           0
     30570 TIP3     4407     TIP3     H1       HT       0.417000       1.00800           0
     30571 TIP3     4407     TIP3     H2       HT       0.417000       1.00800           0
     30572 TIP3     4408     TIP3     OH2      OT      -0.834000       15.9994           0
     30573 TIP3     4408     TIP3     H1       HT       0.417000       1.00800           0
     30574 TIP3     4408     TIP3     H2       HT       0.417000       1.00800           0
     30575 TIP3     4409     TIP3     OH2      OT      -0.834000       15.9994           0
     30576 TIP3     4409     TIP3     H1       HT       0.417000       1.00800           0
     30577 TIP3     4409     TIP3     H2       HT       0.417000       1.00800           0
     30578 TIP3     4410     TIP3     OH2      OT      -0.834000       15.9994           0
     30579 TIP3     4410     TIP3     H1       HT       0.417000       1.00800           0
     30580 TIP3     4410     TIP3     H2       HT       0.417000       1.00800           0
     30581 TIP3     4411     TIP3     OH2      OT      -0.834000       15.9994           0
     30582 TIP3     4411     TIP3     H1       HT       0.417000       1.00800           0
     30583 TIP3     4411     TIP3     H2       HT       0.417000       1.00800           0
     30584 TIP3     4412     TIP3     OH2      OT      -0.834000       15.9994           0
     30585 TIP3     4412     TIP3     H1       HT       0.417000       1.00800           0
     30586 TIP3     4412     TIP3     H2       HT       0.417000       1.00800           0
     30587 TIP3     4413     TIP3     OH2      OT      -0.834000       15.9994           0
     30588 TIP3     4413     TIP3     H1       HT       0.417000       1.00800           0
     30589 TIP3     4413     TIP3     H2       HT       0.417000       1.00800           0
     30590 TIP3     4414     TIP3     OH2      OT      -0.834000       15.9994           0
     30591 TIP3     4414     TIP3     H1       HT       0.417000       1.00800           0
     30592 TIP3     4414     TIP3     H2       HT       0.417000       1.00800           0
     30593 TIP3     4415     TIP3     OH2      OT      -0.834000       15.9994           0
     30594 TIP3     4415     TIP3     H1       HT       0.417000       1.00800           0
     30595 TIP3     4415     TIP3     H2       HT       0.417000       1.00800           0
     30596 TIP3     4416     TIP3     OH2      OT      -0.834000       15.9994           0
     30597 TIP3     4416     TIP3     H1       HT       0.417000       1.00800           0
     30598 TIP3     4416     TIP3     H2       HT       0.417000       1.00800           0
     30599 TIP3     4417     TIP3     OH2      OT      -0.834000       15.9994           0
     30600 TIP3     4417     TIP3     H1       HT       0.417000       1.00800           0
     30601 TIP3     4417     TIP3     H2       HT       0.417000       1.00800           0
     30602 TIP3     4418     TIP3     OH2      OT      -0.834000       15.9994           0
     30603 TIP3     4418     TIP3     H1       HT       0.417000       1.00800           0
     30604 TIP3     4418     TIP3     H2       HT       0.417000       1.00800           0
     30605 TIP3     4419     TIP3     OH2      OT      -0.834000       15.9994           0
     30606 TIP3     4419     TIP3     H1       HT       0.417000       1.00800           0
     30607 TIP3     4419     TIP3     H2       HT       0.417000       1.00800           0
     30608 TIP3     4420     TIP3     OH2      OT      -0.834000       15.9994           0
     30609 TIP3     4420     TIP3     H1       HT       0.417000       1.00800           0
     30610 TIP3     4420     TIP3     H2       HT       0.417000       1.00800           0
     30611 TIP3     4421     TIP3     OH2      OT      -0.834000       15.9994           0
     30612 TIP3     4421     TIP3     H1       HT       0.417000       1.00800           0
     30613 TIP3     4421     TIP3     H2       HT       0.417000       1.00800           0
     30614 TIP3     4422     TIP3     OH2      OT      -0.834000       15.9994           0
     30615 TIP3     4422     TIP3     H1       HT       0.417000       1.00800           0
     30616 TIP3     4422     TIP3     H2       HT       0.417000       1.00800           0
     30617 TIP3     4423     TIP3     OH2      OT      -0.834000       15.9994           0
     30618 TIP3     4423     TIP3     H1       HT       0.417000       1.00800           0
     30619 TIP3     4423     TIP3     H2       HT       0.417000       1.00800           0
     30620 TIP3     4424     TIP3     OH2      OT      -0.834000       15.9994           0
     30621 TIP3     4424     TIP3     H1       HT       0.417000       1.00800           0
     30622 TIP3     4424     TIP3     H2       HT       0.417000       1.00800           0
     30623 TIP3     4425     TIP3     OH2      OT      -0.834000       15.9994           0
     30624 TIP3     4425     TIP3     H1       HT       0.417000       1.00800           0
     30625 TIP3     4425     TIP3     H2       HT       0.417000       1.00800           0
     30626 TIP3     4426     TIP3     OH2      OT      -0.834000       15.9994           0
     30627 TIP3     4426     TIP3     H1       HT       0.417000       1.00800           0
     30628 TIP3     4426     TIP3     H2       HT       0.417000       1.00800           0
     30629 TIP3     4427     TIP3     OH2      OT      -0.834000       15.9994           0
     30630 TIP3     4427     TIP3     H1       HT       0.417000       1.00800           0
     30631 TIP3     4427     TIP3     H2       HT       0.417000       1.00800           0
     30632 TIP3     4428     TIP3     OH2      OT      -0.834000       15.9994           0
     30633 TIP3     4428     TIP3     H1       HT       0.417000       1.00800           0
     30634 TIP3     4428     TIP3     H2       HT       0.417000       1.00800           0
     30635 TIP3     4429     TIP3     OH2      OT      -0.834000       15.9994           0
     30636 TIP3     4429     TIP3     H1       HT       0.417000       1.00800           0
     30637 TIP3     4429     TIP3     H2       HT       0.417000       1.00800           0
     30638 TIP3     4430     TIP3     OH2      OT      -0.834000       15.9994           0
     30639 TIP3     4430     TIP3     H1       HT       0.417000       1.00800           0
     30640 TIP3     4430     TIP3     H2       HT       0.417000       1.00800           0
     30641 TIP3     4431     TIP3     OH2      OT      -0.834000       15.9994           0
     30642 TIP3     4431     TIP3     H1       HT       0.417000       1.00800           0
     30643 TIP3     4431     TIP3     H2       HT       0.417000       1.00800           0
     30644 TIP3     4432     TIP3     OH2      OT      -0.834000       15.9994           0
     30645 TIP3     4432     TIP3     H1       HT       0.417000       1.00800           0
     30646 TIP3     4432     TIP3     H2       HT       0.417000       1.00800           0
     30647 TIP3     4433     TIP3     OH2      OT      -0.834000       15.9994           0
     30648 TIP3     4433     TIP3     H1       HT       0.417000       1.00800           0
     30649 TIP3     4433     TIP3     H2       HT       0.417000       1.00800           0
     30650 TIP3     4434     TIP3     OH2      OT      -0.834000       15.9994           0
     30651 TIP3     4434     TIP3     H1       HT       0.417000       1.00800           0
     30652 TIP3     4434     TIP3     H2       HT       0.417000       1.00800           0
     30653 TIP3     4435     TIP3     OH2      OT      -0.834000       15.9994           0
     30654 TIP3     4435     TIP3     H1       HT       0.417000       1.00800           0
     30655 TIP3     4435     TIP3     H2       HT       0.417000       1.00800           0
     30656 TIP3     4436     TIP3     OH2      OT      -0.834000       15.9994           0
     30657 TIP3     4436     TIP3     H1       HT       0.417000       1.00800           0
     30658 TIP3     4436     TIP3     H2       HT       0.417000       1.00800           0
     30659 TIP3     4437     TIP3     OH2      OT      -0.834000       15.9994           0
     30660 TIP3     4437     TIP3     H1       HT       0.417000       1.00800           0
     30661 TIP3     4437     TIP3     H2       HT       0.417000       1.00800           0
     30662 TIP3     4438     TIP3     OH2      OT      -0.834000       15.9994           0
     30663 TIP3     4438     TIP3     H1       HT       0.417000       1.00800           0
     30664 TIP3     4438     TIP3     H2       HT       0.417000       1.00800           0
     30665 TIP3     4439     TIP3     OH2      OT      -0.834000       15.9994           0
     30666 TIP3     4439     TIP3     H1       HT       0.417000       1.00800           0
     30667 TIP3     4439     TIP3     H2       HT       0.417000       1.00800           0
     30668 TIP3     4440     TIP3     OH2      OT      -0.834000       15.9994           0
     30669 TIP3     4440     TIP3     H1       HT       0.417000       1.00800           0
     30670 TIP3     4440     TIP3     H2       HT       0.417000       1.00800           0
     30671 TIP3     4441     TIP3     OH2      OT      -0.834000       15.9994           0
     30672 TIP3     4441     TIP3     H1       HT       0.417000       1.00800           0
     30673 TIP3     4441     TIP3     H2       HT       0.417000       1.00800           0
     30674 TIP3     4442     TIP3     OH2      OT      -0.834000       15.9994           0
     30675 TIP3     4442     TIP3     H1       HT       0.417000       1.00800           0
     30676 TIP3     4442     TIP3     H2       HT       0.417000       1.00800           0
     30677 TIP3     4443     TIP3     OH2      OT      -0.834000       15.9994           0
     30678 TIP3     4443     TIP3     H1       HT       0.417000       1.00800           0
     30679 TIP3     4443     TIP3     H2       HT       0.417000       1.00800           0
     30680 TIP3     4444     TIP3     OH2      OT      -0.834000       15.9994           0
     30681 TIP3     4444     TIP3     H1       HT       0.417000       1.00800           0
     30682 TIP3     4444     TIP3     H2       HT       0.417000       1.00800           0
     30683 TIP3     4445     TIP3     OH2      OT      -0.834000       15.9994           0
     30684 TIP3     4445     TIP3     H1       HT       0.417000       1.00800           0
     30685 TIP3     4445     TIP3     H2       HT       0.417000       1.00800           0
     30686 TIP3     4446     TIP3     OH2      OT      -0.834000       15.9994           0
     30687 TIP3     4446     TIP3     H1       HT       0.417000       1.00800           0
     30688 TIP3     4446     TIP3     H2       HT       0.417000       1.00800           0
     30689 TIP3     4447     TIP3     OH2      OT      -0.834000       15.9994           0
     30690 TIP3     4447     TIP3     H1       HT       0.417000       1.00800           0
     30691 TIP3     4447     TIP3     H2       HT       0.417000       1.00800           0
     30692 TIP3     4448     TIP3     OH2      OT      -0.834000       15.9994           0
     30693 TIP3     4448     TIP3     H1       HT       0.417000       1.00800           0
     30694 TIP3     4448     TIP3     H2       HT       0.417000       1.00800           0
     30695 TIP3     4449     TIP3     OH2      OT      -0.834000       15.9994           0
     30696 TIP3     4449     TIP3     H1       HT       0.417000       1.00800           0
     30697 TIP3     4449     TIP3     H2       HT       0.417000       1.00800           0
     30698 TIP3     4450     TIP3     OH2      OT      -0.834000       15.9994           0
     30699 TIP3     4450     TIP3     H1       HT       0.417000       1.00800           0
     30700 TIP3     4450     TIP3     H2       HT       0.417000       1.00800           0
     30701 TIP3     4451     TIP3     OH2      OT      -0.834000       15.9994           0
     30702 TIP3     4451     TIP3     H1       HT       0.417000       1.00800           0
     30703 TIP3     4451     TIP3     H2       HT       0.417000       1.00800           0
     30704 TIP3     4452     TIP3     OH2      OT      -0.834000       15.9994           0
     30705 TIP3     4452     TIP3     H1       HT       0.417000       1.00800           0
     30706 TIP3     4452     TIP3     H2       HT       0.417000       1.00800           0
     30707 TIP3     4453     TIP3     OH2      OT      -0.834000       15.9994           0
     30708 TIP3     4453     TIP3     H1       HT       0.417000       1.00800           0
     30709 TIP3     4453     TIP3     H2       HT       0.417000       1.00800           0
     30710 TIP3     4454     TIP3     OH2      OT      -0.834000       15.9994           0
     30711 TIP3     4454     TIP3     H1       HT       0.417000       1.00800           0
     30712 TIP3     4454     TIP3     H2       HT       0.417000       1.00800           0
     30713 TIP3     4455     TIP3     OH2      OT      -0.834000       15.9994           0
     30714 TIP3     4455     TIP3     H1       HT       0.417000       1.00800           0
     30715 TIP3     4455     TIP3     H2       HT       0.417000       1.00800           0
     30716 TIP3     4456     TIP3     OH2      OT      -0.834000       15.9994           0
     30717 TIP3     4456     TIP3     H1       HT       0.417000       1.00800           0
     30718 TIP3     4456     TIP3     H2       HT       0.417000       1.00800           0
     30719 TIP3     4457     TIP3     OH2      OT      -0.834000       15.9994           0
     30720 TIP3     4457     TIP3     H1       HT       0.417000       1.00800           0
     30721 TIP3     4457     TIP3     H2       HT       0.417000       1.00800           0
     30722 TIP3     4458     TIP3     OH2      OT      -0.834000       15.9994           0
     30723 TIP3     4458     TIP3     H1       HT       0.417000       1.00800           0
     30724 TIP3     4458     TIP3     H2       HT       0.417000       1.00800           0
     30725 TIP3     4459     TIP3     OH2      OT      -0.834000       15.9994           0
     30726 TIP3     4459     TIP3     H1       HT       0.417000       1.00800           0
     30727 TIP3     4459     TIP3     H2       HT       0.417000       1.00800           0
     30728 TIP3     4460     TIP3     OH2      OT      -0.834000       15.9994           0
     30729 TIP3     4460     TIP3     H1       HT       0.417000       1.00800           0
     30730 TIP3     4460     TIP3     H2       HT       0.417000       1.00800           0
     30731 TIP3     4461     TIP3     OH2      OT      -0.834000       15.9994           0
     30732 TIP3     4461     TIP3     H1       HT       0.417000       1.00800           0
     30733 TIP3     4461     TIP3     H2       HT       0.417000       1.00800           0
     30734 TIP3     4462     TIP3     OH2      OT      -0.834000       15.9994           0
     30735 TIP3     4462     TIP3     H1       HT       0.417000       1.00800           0
     30736 TIP3     4462     TIP3     H2       HT       0.417000       1.00800           0
     30737 TIP3     4463     TIP3     OH2      OT      -0.834000       15.9994           0
     30738 TIP3     4463     TIP3     H1       HT       0.417000       1.00800           0
     30739 TIP3     4463     TIP3     H2       HT       0.417000       1.00800           0
     30740 TIP3     4464     TIP3     OH2      OT      -0.834000       15.9994           0
     30741 TIP3     4464     TIP3     H1       HT       0.417000       1.00800           0
     30742 TIP3     4464     TIP3     H2       HT       0.417000       1.00800           0
     30743 TIP3     4465     TIP3     OH2      OT      -0.834000       15.9994           0
     30744 TIP3     4465     TIP3     H1       HT       0.417000       1.00800           0
     30745 TIP3     4465     TIP3     H2       HT       0.417000       1.00800           0
     30746 TIP3     4466     TIP3     OH2      OT      -0.834000       15.9994           0
     30747 TIP3     4466     TIP3     H1       HT       0.417000       1.00800           0
     30748 TIP3     4466     TIP3     H2       HT       0.417000       1.00800           0
     30749 TIP3     4467     TIP3     OH2      OT      -0.834000       15.9994           0
     30750 TIP3     4467     TIP3     H1       HT       0.417000       1.00800           0
     30751 TIP3     4467     TIP3     H2       HT       0.417000       1.00800           0
     30752 TIP3     4468     TIP3     OH2      OT      -0.834000       15.9994           0
     30753 TIP3     4468     TIP3     H1       HT       0.417000       1.00800           0
     30754 TIP3     4468     TIP3     H2       HT       0.417000       1.00800           0
     30755 TIP3     4469     TIP3     OH2      OT      -0.834000       15.9994           0
     30756 TIP3     4469     TIP3     H1       HT       0.417000       1.00800           0
     30757 TIP3     4469     TIP3     H2       HT       0.417000       1.00800           0
     30758 TIP3     4470     TIP3     OH2      OT      -0.834000       15.9994           0
     30759 TIP3     4470     TIP3     H1       HT       0.417000       1.00800           0
     30760 TIP3     4470     TIP3     H2       HT       0.417000       1.00800           0
     30761 TIP3     4471     TIP3     OH2      OT      -0.834000       15.9994           0
     30762 TIP3     4471     TIP3     H1       HT       0.417000       1.00800           0
     30763 TIP3     4471     TIP3     H2       HT       0.417000       1.00800           0
     30764 TIP3     4472     TIP3     OH2      OT      -0.834000       15.9994           0
     30765 TIP3     4472     TIP3     H1       HT       0.417000       1.00800           0
     30766 TIP3     4472     TIP3     H2       HT       0.417000       1.00800           0
     30767 TIP3     4473     TIP3     OH2      OT      -0.834000       15.9994           0
     30768 TIP3     4473     TIP3     H1       HT       0.417000       1.00800           0
     30769 TIP3     4473     TIP3     H2       HT       0.417000       1.00800           0
     30770 TIP3     4474     TIP3     OH2      OT      -0.834000       15.9994           0
     30771 TIP3     4474     TIP3     H1       HT       0.417000       1.00800           0
     30772 TIP3     4474     TIP3     H2       HT       0.417000       1.00800           0
     30773 TIP3     4475     TIP3     OH2      OT      -0.834000       15.9994           0
     30774 TIP3     4475     TIP3     H1       HT       0.417000       1.00800           0
     30775 TIP3     4475     TIP3     H2       HT       0.417000       1.00800           0
     30776 TIP3     4476     TIP3     OH2      OT      -0.834000       15.9994           0
     30777 TIP3     4476     TIP3     H1       HT       0.417000       1.00800           0
     30778 TIP3     4476     TIP3     H2       HT       0.417000       1.00800           0
     30779 TIP3     4477     TIP3     OH2      OT      -0.834000       15.9994           0
     30780 TIP3     4477     TIP3     H1       HT       0.417000       1.00800           0
     30781 TIP3     4477     TIP3     H2       HT       0.417000       1.00800           0
     30782 TIP3     4478     TIP3     OH2      OT      -0.834000       15.9994           0
     30783 TIP3     4478     TIP3     H1       HT       0.417000       1.00800           0
     30784 TIP3     4478     TIP3     H2       HT       0.417000       1.00800           0
     30785 TIP3     4479     TIP3     OH2      OT      -0.834000       15.9994           0
     30786 TIP3     4479     TIP3     H1       HT       0.417000       1.00800           0
     30787 TIP3     4479     TIP3     H2       HT       0.417000       1.00800           0
     30788 TIP3     4480     TIP3     OH2      OT      -0.834000       15.9994           0
     30789 TIP3     4480     TIP3     H1       HT       0.417000       1.00800           0
     30790 TIP3     4480     TIP3     H2       HT       0.417000       1.00800           0
     30791 TIP3     4481     TIP3     OH2      OT      -0.834000       15.9994           0
     30792 TIP3     4481     TIP3     H1       HT       0.417000       1.00800           0
     30793 TIP3     4481     TIP3     H2       HT       0.417000       1.00800           0
     30794 TIP3     4482     TIP3     OH2      OT      -0.834000       15.9994           0
     30795 TIP3     4482     TIP3     H1       HT       0.417000       1.00800           0
     30796 TIP3     4482     TIP3     H2       HT       0.417000       1.00800           0
     30797 TIP3     4483     TIP3     OH2      OT      -0.834000       15.9994           0
     30798 TIP3     4483     TIP3     H1       HT       0.417000       1.00800           0
     30799 TIP3     4483     TIP3     H2       HT       0.417000       1.00800           0
     30800 TIP3     4484     TIP3     OH2      OT      -0.834000       15.9994           0
     30801 TIP3     4484     TIP3     H1       HT       0.417000       1.00800           0
     30802 TIP3     4484     TIP3     H2       HT       0.417000       1.00800           0
     30803 TIP3     4485     TIP3     OH2      OT      -0.834000       15.9994           0
     30804 TIP3     4485     TIP3     H1       HT       0.417000       1.00800           0
     30805 TIP3     4485     TIP3     H2       HT       0.417000       1.00800           0
     30806 TIP3     4486     TIP3     OH2      OT      -0.834000       15.9994           0
     30807 TIP3     4486     TIP3     H1       HT       0.417000       1.00800           0
     30808 TIP3     4486     TIP3     H2       HT       0.417000       1.00800           0
     30809 TIP3     4487     TIP3     OH2      OT      -0.834000       15.9994           0
     30810 TIP3     4487     TIP3     H1       HT       0.417000       1.00800           0
     30811 TIP3     4487     TIP3     H2       HT       0.417000       1.00800           0
     30812 TIP3     4488     TIP3     OH2      OT      -0.834000       15.9994           0
     30813 TIP3     4488     TIP3     H1       HT       0.417000       1.00800           0
     30814 TIP3     4488     TIP3     H2       HT       0.417000       1.00800           0
     30815 TIP3     4489     TIP3     OH2      OT      -0.834000       15.9994           0
     30816 TIP3     4489     TIP3     H1       HT       0.417000       1.00800           0
     30817 TIP3     4489     TIP3     H2       HT       0.417000       1.00800           0
     30818 TIP3     4490     TIP3     OH2      OT      -0.834000       15.9994           0
     30819 TIP3     4490     TIP3     H1       HT       0.417000       1.00800           0
     30820 TIP3     4490     TIP3     H2       HT       0.417000       1.00800           0
     30821 TIP3     4491     TIP3     OH2      OT      -0.834000       15.9994           0
     30822 TIP3     4491     TIP3     H1       HT       0.417000       1.00800           0
     30823 TIP3     4491     TIP3     H2       HT       0.417000       1.00800           0
     30824 TIP3     4492     TIP3     OH2      OT      -0.834000       15.9994           0
     30825 TIP3     4492     TIP3     H1       HT       0.417000       1.00800           0
     30826 TIP3     4492     TIP3     H2       HT       0.417000       1.00800           0
     30827 TIP3     4493     TIP3     OH2      OT      -0.834000       15.9994           0
     30828 TIP3     4493     TIP3     H1       HT       0.417000       1.00800           0
     30829 TIP3     4493     TIP3     H2       HT       0.417000       1.00800           0
     30830 TIP3     4494     TIP3     OH2      OT      -0.834000       15.9994           0
     30831 TIP3     4494     TIP3     H1       HT       0.417000       1.00800           0
     30832 TIP3     4494     TIP3     H2       HT       0.417000       1.00800           0
     30833 TIP3     4495     TIP3     OH2      OT      -0.834000       15.9994           0
     30834 TIP3     4495     TIP3     H1       HT       0.417000       1.00800           0
     30835 TIP3     4495     TIP3     H2       HT       0.417000       1.00800           0
     30836 TIP3     4496     TIP3     OH2      OT      -0.834000       15.9994           0
     30837 TIP3     4496     TIP3     H1       HT       0.417000       1.00800           0
     30838 TIP3     4496     TIP3     H2       HT       0.417000       1.00800           0
     30839 TIP3     4497     TIP3     OH2      OT      -0.834000       15.9994           0
     30840 TIP3     4497     TIP3     H1       HT       0.417000       1.00800           0
     30841 TIP3     4497     TIP3     H2       HT       0.417000       1.00800           0
     30842 TIP3     4498     TIP3     OH2      OT      -0.834000       15.9994           0
     30843 TIP3     4498     TIP3     H1       HT       0.417000       1.00800           0
     30844 TIP3     4498     TIP3     H2       HT       0.417000       1.00800           0
     30845 TIP3     4499     TIP3     OH2      OT      -0.834000       15.9994           0
     30846 TIP3     4499     TIP3     H1       HT       0.417000       1.00800           0
     30847 TIP3     4499     TIP3     H2       HT       0.417000       1.00800           0
     30848 TIP3     4500     TIP3     OH2      OT      -0.834000       15.9994           0
     30849 TIP3     4500     TIP3     H1       HT       0.417000       1.00800           0
     30850 TIP3     4500     TIP3     H2       HT       0.417000       1.00800           0
     30851 TIP3     4501     TIP3     OH2      OT      -0.834000       15.9994           0
     30852 TIP3     4501     TIP3     H1       HT       0.417000       1.00800           0
     30853 TIP3     4501     TIP3     H2       HT       0.417000       1.00800           0
     30854 TIP3     4502     TIP3     OH2      OT      -0.834000       15.9994           0
     30855 TIP3     4502     TIP3     H1       HT       0.417000       1.00800           0
     30856 TIP3     4502     TIP3     H2       HT       0.417000       1.00800           0
     30857 TIP3     4503     TIP3     OH2      OT      -0.834000       15.9994           0
     30858 TIP3     4503     TIP3     H1       HT       0.417000       1.00800           0
     30859 TIP3     4503     TIP3     H2       HT       0.417000       1.00800           0
     30860 TIP3     4504     TIP3     OH2      OT      -0.834000       15.9994           0
     30861 TIP3     4504     TIP3     H1       HT       0.417000       1.00800           0
     30862 TIP3     4504     TIP3     H2       HT       0.417000       1.00800           0
     30863 TIP3     4505     TIP3     OH2      OT      -0.834000       15.9994           0
     30864 TIP3     4505     TIP3     H1       HT       0.417000       1.00800           0
     30865 TIP3     4505     TIP3     H2       HT       0.417000       1.00800           0
     30866 TIP3     4506     TIP3     OH2      OT      -0.834000       15.9994           0
     30867 TIP3     4506     TIP3     H1       HT       0.417000       1.00800           0
     30868 TIP3     4506     TIP3     H2       HT       0.417000       1.00800           0
     30869 TIP3     4507     TIP3     OH2      OT      -0.834000       15.9994           0
     30870 TIP3     4507     TIP3     H1       HT       0.417000       1.00800           0
     30871 TIP3     4507     TIP3     H2       HT       0.417000       1.00800           0
     30872 TIP3     4508     TIP3     OH2      OT      -0.834000       15.9994           0
     30873 TIP3     4508     TIP3     H1       HT       0.417000       1.00800           0
     30874 TIP3     4508     TIP3     H2       HT       0.417000       1.00800           0
     30875 TIP3     4509     TIP3     OH2      OT      -0.834000       15.9994           0
     30876 TIP3     4509     TIP3     H1       HT       0.417000       1.00800           0
     30877 TIP3     4509     TIP3     H2       HT       0.417000       1.00800           0
     30878 TIP3     4510     TIP3     OH2      OT      -0.834000       15.9994           0
     30879 TIP3     4510     TIP3     H1       HT       0.417000       1.00800           0
     30880 TIP3     4510     TIP3     H2       HT       0.417000       1.00800           0
     30881 TIP3     4511     TIP3     OH2      OT      -0.834000       15.9994           0
     30882 TIP3     4511     TIP3     H1       HT       0.417000       1.00800           0
     30883 TIP3     4511     TIP3     H2       HT       0.417000       1.00800           0
     30884 TIP3     4512     TIP3     OH2      OT      -0.834000       15.9994           0
     30885 TIP3     4512     TIP3     H1       HT       0.417000       1.00800           0
     30886 TIP3     4512     TIP3     H2       HT       0.417000       1.00800           0
     30887 TIP3     4513     TIP3     OH2      OT      -0.834000       15.9994           0
     30888 TIP3     4513     TIP3     H1       HT       0.417000       1.00800           0
     30889 TIP3     4513     TIP3     H2       HT       0.417000       1.00800           0
     30890 TIP3     4514     TIP3     OH2      OT      -0.834000       15.9994           0
     30891 TIP3     4514     TIP3     H1       HT       0.417000       1.00800           0
     30892 TIP3     4514     TIP3     H2       HT       0.417000       1.00800           0
     30893 TIP3     4515     TIP3     OH2      OT      -0.834000       15.9994           0
     30894 TIP3     4515     TIP3     H1       HT       0.417000       1.00800           0
     30895 TIP3     4515     TIP3     H2       HT       0.417000       1.00800           0
     30896 TIP3     4516     TIP3     OH2      OT      -0.834000       15.9994           0
     30897 TIP3     4516     TIP3     H1       HT       0.417000       1.00800           0
     30898 TIP3     4516     TIP3     H2       HT       0.417000       1.00800           0
     30899 TIP3     4517     TIP3     OH2      OT      -0.834000       15.9994           0
     30900 TIP3     4517     TIP3     H1       HT       0.417000       1.00800           0
     30901 TIP3     4517     TIP3     H2       HT       0.417000       1.00800           0
     30902 TIP3     4518     TIP3     OH2      OT      -0.834000       15.9994           0
     30903 TIP3     4518     TIP3     H1       HT       0.417000       1.00800           0
     30904 TIP3     4518     TIP3     H2       HT       0.417000       1.00800           0
     30905 TIP3     4519     TIP3     OH2      OT      -0.834000       15.9994           0
     30906 TIP3     4519     TIP3     H1       HT       0.417000       1.00800           0
     30907 TIP3     4519     TIP3     H2       HT       0.417000       1.00800           0
     30908 TIP3     4520     TIP3     OH2      OT      -0.834000       15.9994           0
     30909 TIP3     4520     TIP3     H1       HT       0.417000       1.00800           0
     30910 TIP3     4520     TIP3     H2       HT       0.417000       1.00800           0
     30911 TIP3     4521     TIP3     OH2      OT      -0.834000       15.9994           0
     30912 TIP3     4521     TIP3     H1       HT       0.417000       1.00800           0
     30913 TIP3     4521     TIP3     H2       HT       0.417000       1.00800           0
     30914 TIP3     4522     TIP3     OH2      OT      -0.834000       15.9994           0
     30915 TIP3     4522     TIP3     H1       HT       0.417000       1.00800           0
     30916 TIP3     4522     TIP3     H2       HT       0.417000       1.00800           0
     30917 TIP3     4523     TIP3     OH2      OT      -0.834000       15.9994           0
     30918 TIP3     4523     TIP3     H1       HT       0.417000       1.00800           0
     30919 TIP3     4523     TIP3     H2       HT       0.417000       1.00800           0
     30920 TIP3     4524     TIP3     OH2      OT      -0.834000       15.9994           0
     30921 TIP3     4524     TIP3     H1       HT       0.417000       1.00800           0
     30922 TIP3     4524     TIP3     H2       HT       0.417000       1.00800           0
     30923 TIP3     4525     TIP3     OH2      OT      -0.834000       15.9994           0
     30924 TIP3     4525     TIP3     H1       HT       0.417000       1.00800           0
     30925 TIP3     4525     TIP3     H2       HT       0.417000       1.00800           0
     30926 TIP3     4526     TIP3     OH2      OT      -0.834000       15.9994           0
     30927 TIP3     4526     TIP3     H1       HT       0.417000       1.00800           0
     30928 TIP3     4526     TIP3     H2       HT       0.417000       1.00800           0
     30929 TIP3     4527     TIP3     OH2      OT      -0.834000       15.9994           0
     30930 TIP3     4527     TIP3     H1       HT       0.417000       1.00800           0
     30931 TIP3     4527     TIP3     H2       HT       0.417000       1.00800           0
     30932 TIP3     4528     TIP3     OH2      OT      -0.834000       15.9994           0
     30933 TIP3     4528     TIP3     H1       HT       0.417000       1.00800           0
     30934 TIP3     4528     TIP3     H2       HT       0.417000       1.00800           0
     30935 TIP3     4529     TIP3     OH2      OT      -0.834000       15.9994           0
     30936 TIP3     4529     TIP3     H1       HT       0.417000       1.00800           0
     30937 TIP3     4529     TIP3     H2       HT       0.417000       1.00800           0
     30938 TIP3     4530     TIP3     OH2      OT      -0.834000       15.9994           0
     30939 TIP3     4530     TIP3     H1       HT       0.417000       1.00800           0
     30940 TIP3     4530     TIP3     H2       HT       0.417000       1.00800           0
     30941 TIP3     4531     TIP3     OH2      OT      -0.834000       15.9994           0
     30942 TIP3     4531     TIP3     H1       HT       0.417000       1.00800           0
     30943 TIP3     4531     TIP3     H2       HT       0.417000       1.00800           0
     30944 TIP3     4532     TIP3     OH2      OT      -0.834000       15.9994           0
     30945 TIP3     4532     TIP3     H1       HT       0.417000       1.00800           0
     30946 TIP3     4532     TIP3     H2       HT       0.417000       1.00800           0
     30947 TIP3     4533     TIP3     OH2      OT      -0.834000       15.9994           0
     30948 TIP3     4533     TIP3     H1       HT       0.417000       1.00800           0
     30949 TIP3     4533     TIP3     H2       HT       0.417000       1.00800           0
     30950 TIP3     4534     TIP3     OH2      OT      -0.834000       15.9994           0
     30951 TIP3     4534     TIP3     H1       HT       0.417000       1.00800           0
     30952 TIP3     4534     TIP3     H2       HT       0.417000       1.00800           0
     30953 TIP3     4535     TIP3     OH2      OT      -0.834000       15.9994           0
     30954 TIP3     4535     TIP3     H1       HT       0.417000       1.00800           0
     30955 TIP3     4535     TIP3     H2       HT       0.417000       1.00800           0
     30956 TIP3     4536     TIP3     OH2      OT      -0.834000       15.9994           0
     30957 TIP3     4536     TIP3     H1       HT       0.417000       1.00800           0
     30958 TIP3     4536     TIP3     H2       HT       0.417000       1.00800           0
     30959 TIP3     4537     TIP3     OH2      OT      -0.834000       15.9994           0
     30960 TIP3     4537     TIP3     H1       HT       0.417000       1.00800           0
     30961 TIP3     4537     TIP3     H2       HT       0.417000       1.00800           0
     30962 TIP3     4538     TIP3     OH2      OT      -0.834000       15.9994           0
     30963 TIP3     4538     TIP3     H1       HT       0.417000       1.00800           0
     30964 TIP3     4538     TIP3     H2       HT       0.417000       1.00800           0
     30965 TIP3     4539     TIP3     OH2      OT      -0.834000       15.9994           0
     30966 TIP3     4539     TIP3     H1       HT       0.417000       1.00800           0
     30967 TIP3     4539     TIP3     H2       HT       0.417000       1.00800           0
     30968 TIP3     4540     TIP3     OH2      OT      -0.834000       15.9994           0
     30969 TIP3     4540     TIP3     H1       HT       0.417000       1.00800           0
     30970 TIP3     4540     TIP3     H2       HT       0.417000       1.00800           0
     30971 TIP3     4541     TIP3     OH2      OT      -0.834000       15.9994           0
     30972 TIP3     4541     TIP3     H1       HT       0.417000       1.00800           0
     30973 TIP3     4541     TIP3     H2       HT       0.417000       1.00800           0
     30974 TIP3     4542     TIP3     OH2      OT      -0.834000       15.9994           0
     30975 TIP3     4542     TIP3     H1       HT       0.417000       1.00800           0
     30976 TIP3     4542     TIP3     H2       HT       0.417000       1.00800           0
     30977 TIP3     4543     TIP3     OH2      OT      -0.834000       15.9994           0
     30978 TIP3     4543     TIP3     H1       HT       0.417000       1.00800           0
     30979 TIP3     4543     TIP3     H2       HT       0.417000       1.00800           0
     30980 TIP3     4544     TIP3     OH2      OT      -0.834000       15.9994           0
     30981 TIP3     4544     TIP3     H1       HT       0.417000       1.00800           0
     30982 TIP3     4544     TIP3     H2       HT       0.417000       1.00800           0
     30983 TIP3     4545     TIP3     OH2      OT      -0.834000       15.9994           0
     30984 TIP3     4545     TIP3     H1       HT       0.417000       1.00800           0
     30985 TIP3     4545     TIP3     H2       HT       0.417000       1.00800           0
     30986 TIP3     4546     TIP3     OH2      OT      -0.834000       15.9994           0
     30987 TIP3     4546     TIP3     H1       HT       0.417000       1.00800           0
     30988 TIP3     4546     TIP3     H2       HT       0.417000       1.00800           0
     30989 TIP3     4547     TIP3     OH2      OT      -0.834000       15.9994           0
     30990 TIP3     4547     TIP3     H1       HT       0.417000       1.00800           0
     30991 TIP3     4547     TIP3     H2       HT       0.417000       1.00800           0
     30992 TIP3     4548     TIP3     OH2      OT      -0.834000       15.9994           0
     30993 TIP3     4548     TIP3     H1       HT       0.417000       1.00800           0
     30994 TIP3     4548     TIP3     H2       HT       0.417000       1.00800           0
     30995 TIP3     4549     TIP3     OH2      OT      -0.834000       15.9994           0
     30996 TIP3     4549     TIP3     H1       HT       0.417000       1.00800           0
     30997 TIP3     4549     TIP3     H2       HT       0.417000       1.00800           0
     30998 TIP3     4550     TIP3     OH2      OT      -0.834000       15.9994           0
     30999 TIP3     4550     TIP3     H1       HT       0.417000       1.00800           0
     31000 TIP3     4550     TIP3     H2       HT       0.417000       1.00800           0
     31001 TIP3     4551     TIP3     OH2      OT      -0.834000       15.9994           0
     31002 TIP3     4551     TIP3     H1       HT       0.417000       1.00800           0
     31003 TIP3     4551     TIP3     H2       HT       0.417000       1.00800           0
     31004 TIP3     4552     TIP3     OH2      OT      -0.834000       15.9994           0
     31005 TIP3     4552     TIP3     H1       HT       0.417000       1.00800           0
     31006 TIP3     4552     TIP3     H2       HT       0.417000       1.00800           0
     31007 TIP3     4553     TIP3     OH2      OT      -0.834000       15.9994           0
     31008 TIP3     4553     TIP3     H1       HT       0.417000       1.00800           0
     31009 TIP3     4553     TIP3     H2       HT       0.417000       1.00800           0
     31010 TIP3     4554     TIP3     OH2      OT      -0.834000       15.9994           0
     31011 TIP3     4554     TIP3     H1       HT       0.417000       1.00800           0
     31012 TIP3     4554     TIP3     H2       HT       0.417000       1.00800           0
     31013 TIP3     4555     TIP3     OH2      OT      -0.834000       15.9994           0
     31014 TIP3     4555     TIP3     H1       HT       0.417000       1.00800           0
     31015 TIP3     4555     TIP3     H2       HT       0.417000       1.00800           0
     31016 TIP3     4556     TIP3     OH2      OT      -0.834000       15.9994           0
     31017 TIP3     4556     TIP3     H1       HT       0.417000       1.00800           0
     31018 TIP3     4556     TIP3     H2       HT       0.417000       1.00800           0
     31019 TIP3     4557     TIP3     OH2      OT      -0.834000       15.9994           0
     31020 TIP3     4557     TIP3     H1       HT       0.417000       1.00800           0
     31021 TIP3     4557     TIP3     H2       HT       0.417000       1.00800           0
     31022 TIP3     4558     TIP3     OH2      OT      -0.834000       15.9994           0
     31023 TIP3     4558     TIP3     H1       HT       0.417000       1.00800           0
     31024 TIP3     4558     TIP3     H2       HT       0.417000       1.00800           0
     31025 TIP3     4559     TIP3     OH2      OT      -0.834000       15.9994           0
     31026 TIP3     4559     TIP3     H1       HT       0.417000       1.00800           0
     31027 TIP3     4559     TIP3     H2       HT       0.417000       1.00800           0
     31028 TIP3     4560     TIP3     OH2      OT      -0.834000       15.9994           0
     31029 TIP3     4560     TIP3     H1       HT       0.417000       1.00800           0
     31030 TIP3     4560     TIP3     H2       HT       0.417000       1.00800           0
     31031 TIP3     4561     TIP3     OH2      OT      -0.834000       15.9994           0
     31032 TIP3     4561     TIP3     H1       HT       0.417000       1.00800           0
     31033 TIP3     4561     TIP3     H2       HT       0.417000       1.00800           0
     31034 TIP3     4562     TIP3     OH2      OT      -0.834000       15.9994           0
     31035 TIP3     4562     TIP3     H1       HT       0.417000       1.00800           0
     31036 TIP3     4562     TIP3     H2       HT       0.417000       1.00800           0
     31037 TIP3     4563     TIP3     OH2      OT      -0.834000       15.9994           0
     31038 TIP3     4563     TIP3     H1       HT       0.417000       1.00800           0
     31039 TIP3     4563     TIP3     H2       HT       0.417000       1.00800           0
     31040 TIP3     4564     TIP3     OH2      OT      -0.834000       15.9994           0
     31041 TIP3     4564     TIP3     H1       HT       0.417000       1.00800           0
     31042 TIP3     4564     TIP3     H2       HT       0.417000       1.00800           0
     31043 TIP3     4565     TIP3     OH2      OT      -0.834000       15.9994           0
     31044 TIP3     4565     TIP3     H1       HT       0.417000       1.00800           0
     31045 TIP3     4565     TIP3     H2       HT       0.417000       1.00800           0
     31046 TIP3     4566     TIP3     OH2      OT      -0.834000       15.9994           0
     31047 TIP3     4566     TIP3     H1       HT       0.417000       1.00800           0
     31048 TIP3     4566     TIP3     H2       HT       0.417000       1.00800           0
     31049 TIP3     4567     TIP3     OH2      OT      -0.834000       15.9994           0
     31050 TIP3     4567     TIP3     H1       HT       0.417000       1.00800           0
     31051 TIP3     4567     TIP3     H2       HT       0.417000       1.00800           0
     31052 TIP3     4568     TIP3     OH2      OT      -0.834000       15.9994           0
     31053 TIP3     4568     TIP3     H1       HT       0.417000       1.00800           0
     31054 TIP3     4568     TIP3     H2       HT       0.417000       1.00800           0
     31055 TIP3     4569     TIP3     OH2      OT      -0.834000       15.9994           0
     31056 TIP3     4569     TIP3     H1       HT       0.417000       1.00800           0
     31057 TIP3     4569     TIP3     H2       HT       0.417000       1.00800           0
     31058 TIP3     4570     TIP3     OH2      OT      -0.834000       15.9994           0
     31059 TIP3     4570     TIP3     H1       HT       0.417000       1.00800           0
     31060 TIP3     4570     TIP3     H2       HT       0.417000       1.00800           0
     31061 TIP3     4571     TIP3     OH2      OT      -0.834000       15.9994           0
     31062 TIP3     4571     TIP3     H1       HT       0.417000       1.00800           0
     31063 TIP3     4571     TIP3     H2       HT       0.417000       1.00800           0
     31064 TIP3     4572     TIP3     OH2      OT      -0.834000       15.9994           0
     31065 TIP3     4572     TIP3     H1       HT       0.417000       1.00800           0
     31066 TIP3     4572     TIP3     H2       HT       0.417000       1.00800           0
     31067 TIP3     4573     TIP3     OH2      OT      -0.834000       15.9994           0
     31068 TIP3     4573     TIP3     H1       HT       0.417000       1.00800           0
     31069 TIP3     4573     TIP3     H2       HT       0.417000       1.00800           0
     31070 TIP3     4574     TIP3     OH2      OT      -0.834000       15.9994           0
     31071 TIP3     4574     TIP3     H1       HT       0.417000       1.00800           0
     31072 TIP3     4574     TIP3     H2       HT       0.417000       1.00800           0
     31073 TIP3     4575     TIP3     OH2      OT      -0.834000       15.9994           0
     31074 TIP3     4575     TIP3     H1       HT       0.417000       1.00800           0
     31075 TIP3     4575     TIP3     H2       HT       0.417000       1.00800           0
     31076 TIP3     4576     TIP3     OH2      OT      -0.834000       15.9994           0
     31077 TIP3     4576     TIP3     H1       HT       0.417000       1.00800           0
     31078 TIP3     4576     TIP3     H2       HT       0.417000       1.00800           0
     31079 TIP3     4577     TIP3     OH2      OT      -0.834000       15.9994           0
     31080 TIP3     4577     TIP3     H1       HT       0.417000       1.00800           0
     31081 TIP3     4577     TIP3     H2       HT       0.417000       1.00800           0
     31082 TIP3     4578     TIP3     OH2      OT      -0.834000       15.9994           0
     31083 TIP3     4578     TIP3     H1       HT       0.417000       1.00800           0
     31084 TIP3     4578     TIP3     H2       HT       0.417000       1.00800           0
     31085 TIP3     4579     TIP3     OH2      OT      -0.834000       15.9994           0
     31086 TIP3     4579     TIP3     H1       HT       0.417000       1.00800           0
     31087 TIP3     4579     TIP3     H2       HT       0.417000       1.00800           0
     31088 TIP3     4580     TIP3     OH2      OT      -0.834000       15.9994           0
     31089 TIP3     4580     TIP3     H1       HT       0.417000       1.00800           0
     31090 TIP3     4580     TIP3     H2       HT       0.417000       1.00800           0
     31091 TIP3     4581     TIP3     OH2      OT      -0.834000       15.9994           0
     31092 TIP3     4581     TIP3     H1       HT       0.417000       1.00800           0
     31093 TIP3     4581     TIP3     H2       HT       0.417000       1.00800           0
     31094 TIP3     4582     TIP3     OH2      OT      -0.834000       15.9994           0
     31095 TIP3     4582     TIP3     H1       HT       0.417000       1.00800           0
     31096 TIP3     4582     TIP3     H2       HT       0.417000       1.00800           0
     31097 TIP3     4583     TIP3     OH2      OT      -0.834000       15.9994           0
     31098 TIP3     4583     TIP3     H1       HT       0.417000       1.00800           0
     31099 TIP3     4583     TIP3     H2       HT       0.417000       1.00800           0
     31100 TIP3     4584     TIP3     OH2      OT      -0.834000       15.9994           0
     31101 TIP3     4584     TIP3     H1       HT       0.417000       1.00800           0
     31102 TIP3     4584     TIP3     H2       HT       0.417000       1.00800           0
     31103 TIP3     4585     TIP3     OH2      OT      -0.834000       15.9994           0
     31104 TIP3     4585     TIP3     H1       HT       0.417000       1.00800           0
     31105 TIP3     4585     TIP3     H2       HT       0.417000       1.00800           0
     31106 TIP3     4586     TIP3     OH2      OT      -0.834000       15.9994           0
     31107 TIP3     4586     TIP3     H1       HT       0.417000       1.00800           0
     31108 TIP3     4586     TIP3     H2       HT       0.417000       1.00800           0
     31109 TIP3     4587     TIP3     OH2      OT      -0.834000       15.9994           0
     31110 TIP3     4587     TIP3     H1       HT       0.417000       1.00800           0
     31111 TIP3     4587     TIP3     H2       HT       0.417000       1.00800           0
     31112 TIP3     4588     TIP3     OH2      OT      -0.834000       15.9994           0
     31113 TIP3     4588     TIP3     H1       HT       0.417000       1.00800           0
     31114 TIP3     4588     TIP3     H2       HT       0.417000       1.00800           0
     31115 TIP3     4589     TIP3     OH2      OT      -0.834000       15.9994           0
     31116 TIP3     4589     TIP3     H1       HT       0.417000       1.00800           0
     31117 TIP3     4589     TIP3     H2       HT       0.417000       1.00800           0
     31118 TIP3     4590     TIP3     OH2      OT      -0.834000       15.9994           0
     31119 TIP3     4590     TIP3     H1       HT       0.417000       1.00800           0
     31120 TIP3     4590     TIP3     H2       HT       0.417000       1.00800           0
     31121 TIP3     4591     TIP3     OH2      OT      -0.834000       15.9994           0
     31122 TIP3     4591     TIP3     H1       HT       0.417000       1.00800           0
     31123 TIP3     4591     TIP3     H2       HT       0.417000       1.00800           0
     31124 TIP3     4592     TIP3     OH2      OT      -0.834000       15.9994           0
     31125 TIP3     4592     TIP3     H1       HT       0.417000       1.00800           0
     31126 TIP3     4592     TIP3     H2       HT       0.417000       1.00800           0
     31127 TIP3     4593     TIP3     OH2      OT      -0.834000       15.9994           0
     31128 TIP3     4593     TIP3     H1       HT       0.417000       1.00800           0
     31129 TIP3     4593     TIP3     H2       HT       0.417000       1.00800           0
     31130 TIP3     4594     TIP3     OH2      OT      -0.834000       15.9994           0
     31131 TIP3     4594     TIP3     H1       HT       0.417000       1.00800           0
     31132 TIP3     4594     TIP3     H2       HT       0.417000       1.00800           0
     31133 TIP3     4595     TIP3     OH2      OT      -0.834000       15.9994           0
     31134 TIP3     4595     TIP3     H1       HT       0.417000       1.00800           0
     31135 TIP3     4595     TIP3     H2       HT       0.417000       1.00800           0
     31136 TIP3     4596     TIP3     OH2      OT      -0.834000       15.9994           0
     31137 TIP3     4596     TIP3     H1       HT       0.417000       1.00800           0
     31138 TIP3     4596     TIP3     H2       HT       0.417000       1.00800           0
     31139 TIP3     4597     TIP3     OH2      OT      -0.834000       15.9994           0
     31140 TIP3     4597     TIP3     H1       HT       0.417000       1.00800           0
     31141 TIP3     4597     TIP3     H2       HT       0.417000       1.00800           0
     31142 TIP3     4598     TIP3     OH2      OT      -0.834000       15.9994           0
     31143 TIP3     4598     TIP3     H1       HT       0.417000       1.00800           0
     31144 TIP3     4598     TIP3     H2       HT       0.417000       1.00800           0
     31145 TIP3     4599     TIP3     OH2      OT      -0.834000       15.9994           0
     31146 TIP3     4599     TIP3     H1       HT       0.417000       1.00800           0
     31147 TIP3     4599     TIP3     H2       HT       0.417000       1.00800           0
     31148 TIP3     4600     TIP3     OH2      OT      -0.834000       15.9994           0
     31149 TIP3     4600     TIP3     H1       HT       0.417000       1.00800           0
     31150 TIP3     4600     TIP3     H2       HT       0.417000       1.00800           0
     31151 TIP3     4601     TIP3     OH2      OT      -0.834000       15.9994           0
     31152 TIP3     4601     TIP3     H1       HT       0.417000       1.00800           0
     31153 TIP3     4601     TIP3     H2       HT       0.417000       1.00800           0
     31154 TIP3     4602     TIP3     OH2      OT      -0.834000       15.9994           0
     31155 TIP3     4602     TIP3     H1       HT       0.417000       1.00800           0
     31156 TIP3     4602     TIP3     H2       HT       0.417000       1.00800           0
     31157 TIP3     4603     TIP3     OH2      OT      -0.834000       15.9994           0
     31158 TIP3     4603     TIP3     H1       HT       0.417000       1.00800           0
     31159 TIP3     4603     TIP3     H2       HT       0.417000       1.00800           0
     31160 TIP3     4604     TIP3     OH2      OT      -0.834000       15.9994           0
     31161 TIP3     4604     TIP3     H1       HT       0.417000       1.00800           0
     31162 TIP3     4604     TIP3     H2       HT       0.417000       1.00800           0
     31163 TIP3     4605     TIP3     OH2      OT      -0.834000       15.9994           0
     31164 TIP3     4605     TIP3     H1       HT       0.417000       1.00800           0
     31165 TIP3     4605     TIP3     H2       HT       0.417000       1.00800           0
     31166 TIP3     4606     TIP3     OH2      OT      -0.834000       15.9994           0
     31167 TIP3     4606     TIP3     H1       HT       0.417000       1.00800           0
     31168 TIP3     4606     TIP3     H2       HT       0.417000       1.00800           0
     31169 TIP3     4607     TIP3     OH2      OT      -0.834000       15.9994           0
     31170 TIP3     4607     TIP3     H1       HT       0.417000       1.00800           0
     31171 TIP3     4607     TIP3     H2       HT       0.417000       1.00800           0
     31172 TIP3     4608     TIP3     OH2      OT      -0.834000       15.9994           0
     31173 TIP3     4608     TIP3     H1       HT       0.417000       1.00800           0
     31174 TIP3     4608     TIP3     H2       HT       0.417000       1.00800           0
     31175 TIP3     4609     TIP3     OH2      OT      -0.834000       15.9994           0
     31176 TIP3     4609     TIP3     H1       HT       0.417000       1.00800           0
     31177 TIP3     4609     TIP3     H2       HT       0.417000       1.00800           0
     31178 TIP3     4610     TIP3     OH2      OT      -0.834000       15.9994           0
     31179 TIP3     4610     TIP3     H1       HT       0.417000       1.00800           0
     31180 TIP3     4610     TIP3     H2       HT       0.417000       1.00800           0
     31181 TIP3     4611     TIP3     OH2      OT      -0.834000       15.9994           0
     31182 TIP3     4611     TIP3     H1       HT       0.417000       1.00800           0
     31183 TIP3     4611     TIP3     H2       HT       0.417000       1.00800           0
     31184 TIP3     4612     TIP3     OH2      OT      -0.834000       15.9994           0
     31185 TIP3     4612     TIP3     H1       HT       0.417000       1.00800           0
     31186 TIP3     4612     TIP3     H2       HT       0.417000       1.00800           0
     31187 TIP3     4613     TIP3     OH2      OT      -0.834000       15.9994           0
     31188 TIP3     4613     TIP3     H1       HT       0.417000       1.00800           0
     31189 TIP3     4613     TIP3     H2       HT       0.417000       1.00800           0
     31190 TIP3     4614     TIP3     OH2      OT      -0.834000       15.9994           0
     31191 TIP3     4614     TIP3     H1       HT       0.417000       1.00800           0
     31192 TIP3     4614     TIP3     H2       HT       0.417000       1.00800           0
     31193 TIP3     4615     TIP3     OH2      OT      -0.834000       15.9994           0
     31194 TIP3     4615     TIP3     H1       HT       0.417000       1.00800           0
     31195 TIP3     4615     TIP3     H2       HT       0.417000       1.00800           0
     31196 TIP3     4616     TIP3     OH2      OT      -0.834000       15.9994           0
     31197 TIP3     4616     TIP3     H1       HT       0.417000       1.00800           0
     31198 TIP3     4616     TIP3     H2       HT       0.417000       1.00800           0
     31199 TIP3     4617     TIP3     OH2      OT      -0.834000       15.9994           0
     31200 TIP3     4617     TIP3     H1       HT       0.417000       1.00800           0
     31201 TIP3     4617     TIP3     H2       HT       0.417000       1.00800           0
     31202 TIP3     4618     TIP3     OH2      OT      -0.834000       15.9994           0
     31203 TIP3     4618     TIP3     H1       HT       0.417000       1.00800           0
     31204 TIP3     4618     TIP3     H2       HT       0.417000       1.00800           0
     31205 TIP3     4619     TIP3     OH2      OT      -0.834000       15.9994           0
     31206 TIP3     4619     TIP3     H1       HT       0.417000       1.00800           0
     31207 TIP3     4619     TIP3     H2       HT       0.417000       1.00800           0
     31208 TIP3     4620     TIP3     OH2      OT      -0.834000       15.9994           0
     31209 TIP3     4620     TIP3     H1       HT       0.417000       1.00800           0
     31210 TIP3     4620     TIP3     H2       HT       0.417000       1.00800           0
     31211 TIP3     4621     TIP3     OH2      OT      -0.834000       15.9994           0
     31212 TIP3     4621     TIP3     H1       HT       0.417000       1.00800           0
     31213 TIP3     4621     TIP3     H2       HT       0.417000       1.00800           0
     31214 TIP3     4622     TIP3     OH2      OT      -0.834000       15.9994           0
     31215 TIP3     4622     TIP3     H1       HT       0.417000       1.00800           0
     31216 TIP3     4622     TIP3     H2       HT       0.417000       1.00800           0
     31217 TIP3     4623     TIP3     OH2      OT      -0.834000       15.9994           0
     31218 TIP3     4623     TIP3     H1       HT       0.417000       1.00800           0
     31219 TIP3     4623     TIP3     H2       HT       0.417000       1.00800           0
     31220 TIP3     4624     TIP3     OH2      OT      -0.834000       15.9994           0
     31221 TIP3     4624     TIP3     H1       HT       0.417000       1.00800           0
     31222 TIP3     4624     TIP3     H2       HT       0.417000       1.00800           0
     31223 TIP3     4625     TIP3     OH2      OT      -0.834000       15.9994           0
     31224 TIP3     4625     TIP3     H1       HT       0.417000       1.00800           0
     31225 TIP3     4625     TIP3     H2       HT       0.417000       1.00800           0
     31226 TIP3     4626     TIP3     OH2      OT      -0.834000       15.9994           0
     31227 TIP3     4626     TIP3     H1       HT       0.417000       1.00800           0
     31228 TIP3     4626     TIP3     H2       HT       0.417000       1.00800           0
     31229 TIP3     4627     TIP3     OH2      OT      -0.834000       15.9994           0
     31230 TIP3     4627     TIP3     H1       HT       0.417000       1.00800           0
     31231 TIP3     4627     TIP3     H2       HT       0.417000       1.00800           0
     31232 TIP3     4628     TIP3     OH2      OT      -0.834000       15.9994           0
     31233 TIP3     4628     TIP3     H1       HT       0.417000       1.00800           0
     31234 TIP3     4628     TIP3     H2       HT       0.417000       1.00800           0
     31235 TIP3     4629     TIP3     OH2      OT      -0.834000       15.9994           0
     31236 TIP3     4629     TIP3     H1       HT       0.417000       1.00800           0
     31237 TIP3     4629     TIP3     H2       HT       0.417000       1.00800           0
     31238 TIP3     4630     TIP3     OH2      OT      -0.834000       15.9994           0
     31239 TIP3     4630     TIP3     H1       HT       0.417000       1.00800           0
     31240 TIP3     4630     TIP3     H2       HT       0.417000       1.00800           0
     31241 TIP3     4631     TIP3     OH2      OT      -0.834000       15.9994           0
     31242 TIP3     4631     TIP3     H1       HT       0.417000       1.00800           0
     31243 TIP3     4631     TIP3     H2       HT       0.417000       1.00800           0
     31244 TIP3     4632     TIP3     OH2      OT      -0.834000       15.9994           0
     31245 TIP3     4632     TIP3     H1       HT       0.417000       1.00800           0
     31246 TIP3     4632     TIP3     H2       HT       0.417000       1.00800           0
     31247 TIP3     4633     TIP3     OH2      OT      -0.834000       15.9994           0
     31248 TIP3     4633     TIP3     H1       HT       0.417000       1.00800           0
     31249 TIP3     4633     TIP3     H2       HT       0.417000       1.00800           0
     31250 TIP3     4634     TIP3     OH2      OT      -0.834000       15.9994           0
     31251 TIP3     4634     TIP3     H1       HT       0.417000       1.00800           0
     31252 TIP3     4634     TIP3     H2       HT       0.417000       1.00800           0
     31253 TIP3     4635     TIP3     OH2      OT      -0.834000       15.9994           0
     31254 TIP3     4635     TIP3     H1       HT       0.417000       1.00800           0
     31255 TIP3     4635     TIP3     H2       HT       0.417000       1.00800           0
     31256 TIP3     4636     TIP3     OH2      OT      -0.834000       15.9994           0
     31257 TIP3     4636     TIP3     H1       HT       0.417000       1.00800           0
     31258 TIP3     4636     TIP3     H2       HT       0.417000       1.00800           0
     31259 TIP3     4637     TIP3     OH2      OT      -0.834000       15.9994           0
     31260 TIP3     4637     TIP3     H1       HT       0.417000       1.00800           0
     31261 TIP3     4637     TIP3     H2       HT       0.417000       1.00800           0
     31262 TIP3     4638     TIP3     OH2      OT      -0.834000       15.9994           0
     31263 TIP3     4638     TIP3     H1       HT       0.417000       1.00800           0
     31264 TIP3     4638     TIP3     H2       HT       0.417000       1.00800           0
     31265 TIP3     4639     TIP3     OH2      OT      -0.834000       15.9994           0
     31266 TIP3     4639     TIP3     H1       HT       0.417000       1.00800           0
     31267 TIP3     4639     TIP3     H2       HT       0.417000       1.00800           0
     31268 TIP3     4640     TIP3     OH2      OT      -0.834000       15.9994           0
     31269 TIP3     4640     TIP3     H1       HT       0.417000       1.00800           0
     31270 TIP3     4640     TIP3     H2       HT       0.417000       1.00800           0
     31271 TIP3     4641     TIP3     OH2      OT      -0.834000       15.9994           0
     31272 TIP3     4641     TIP3     H1       HT       0.417000       1.00800           0
     31273 TIP3     4641     TIP3     H2       HT       0.417000       1.00800           0
     31274 TIP3     4642     TIP3     OH2      OT      -0.834000       15.9994           0
     31275 TIP3     4642     TIP3     H1       HT       0.417000       1.00800           0
     31276 TIP3     4642     TIP3     H2       HT       0.417000       1.00800           0
     31277 TIP3     4643     TIP3     OH2      OT      -0.834000       15.9994           0
     31278 TIP3     4643     TIP3     H1       HT       0.417000       1.00800           0
     31279 TIP3     4643     TIP3     H2       HT       0.417000       1.00800           0
     31280 TIP3     4644     TIP3     OH2      OT      -0.834000       15.9994           0
     31281 TIP3     4644     TIP3     H1       HT       0.417000       1.00800           0
     31282 TIP3     4644     TIP3     H2       HT       0.417000       1.00800           0
     31283 TIP3     4645     TIP3     OH2      OT      -0.834000       15.9994           0
     31284 TIP3     4645     TIP3     H1       HT       0.417000       1.00800           0
     31285 TIP3     4645     TIP3     H2       HT       0.417000       1.00800           0
     31286 TIP3     4646     TIP3     OH2      OT      -0.834000       15.9994           0
     31287 TIP3     4646     TIP3     H1       HT       0.417000       1.00800           0
     31288 TIP3     4646     TIP3     H2       HT       0.417000       1.00800           0
     31289 TIP3     4647     TIP3     OH2      OT      -0.834000       15.9994           0
     31290 TIP3     4647     TIP3     H1       HT       0.417000       1.00800           0
     31291 TIP3     4647     TIP3     H2       HT       0.417000       1.00800           0
     31292 TIP3     4648     TIP3     OH2      OT      -0.834000       15.9994           0
     31293 TIP3     4648     TIP3     H1       HT       0.417000       1.00800           0
     31294 TIP3     4648     TIP3     H2       HT       0.417000       1.00800           0
     31295 TIP3     4649     TIP3     OH2      OT      -0.834000       15.9994           0
     31296 TIP3     4649     TIP3     H1       HT       0.417000       1.00800           0
     31297 TIP3     4649     TIP3     H2       HT       0.417000       1.00800           0
     31298 TIP3     4650     TIP3     OH2      OT      -0.834000       15.9994           0
     31299 TIP3     4650     TIP3     H1       HT       0.417000       1.00800           0
     31300 TIP3     4650     TIP3     H2       HT       0.417000       1.00800           0
     31301 TIP3     4651     TIP3     OH2      OT      -0.834000       15.9994           0
     31302 TIP3     4651     TIP3     H1       HT       0.417000       1.00800           0
     31303 TIP3     4651     TIP3     H2       HT       0.417000       1.00800           0
     31304 TIP3     4652     TIP3     OH2      OT      -0.834000       15.9994           0
     31305 TIP3     4652     TIP3     H1       HT       0.417000       1.00800           0
     31306 TIP3     4652     TIP3     H2       HT       0.417000       1.00800           0
     31307 TIP3     4653     TIP3     OH2      OT      -0.834000       15.9994           0
     31308 TIP3     4653     TIP3     H1       HT       0.417000       1.00800           0
     31309 TIP3     4653     TIP3     H2       HT       0.417000       1.00800           0
     31310 TIP3     4654     TIP3     OH2      OT      -0.834000       15.9994           0
     31311 TIP3     4654     TIP3     H1       HT       0.417000       1.00800           0
     31312 TIP3     4654     TIP3     H2       HT       0.417000       1.00800           0
     31313 TIP3     4655     TIP3     OH2      OT      -0.834000       15.9994           0
     31314 TIP3     4655     TIP3     H1       HT       0.417000       1.00800           0
     31315 TIP3     4655     TIP3     H2       HT       0.417000       1.00800           0
     31316 TIP3     4656     TIP3     OH2      OT      -0.834000       15.9994           0
     31317 TIP3     4656     TIP3     H1       HT       0.417000       1.00800           0
     31318 TIP3     4656     TIP3     H2       HT       0.417000       1.00800           0
     31319 TIP3     4657     TIP3     OH2      OT      -0.834000       15.9994           0
     31320 TIP3     4657     TIP3     H1       HT       0.417000       1.00800           0
     31321 TIP3     4657     TIP3     H2       HT       0.417000       1.00800           0
     31322 TIP3     4658     TIP3     OH2      OT      -0.834000       15.9994           0
     31323 TIP3     4658     TIP3     H1       HT       0.417000       1.00800           0
     31324 TIP3     4658     TIP3     H2       HT       0.417000       1.00800           0
     31325 TIP3     4659     TIP3     OH2      OT      -0.834000       15.9994           0
     31326 TIP3     4659     TIP3     H1       HT       0.417000       1.00800           0
     31327 TIP3     4659     TIP3     H2       HT       0.417000       1.00800           0
     31328 TIP3     4660     TIP3     OH2      OT      -0.834000       15.9994           0
     31329 TIP3     4660     TIP3     H1       HT       0.417000       1.00800           0
     31330 TIP3     4660     TIP3     H2       HT       0.417000       1.00800           0
     31331 TIP3     4661     TIP3     OH2      OT      -0.834000       15.9994           0
     31332 TIP3     4661     TIP3     H1       HT       0.417000       1.00800           0
     31333 TIP3     4661     TIP3     H2       HT       0.417000       1.00800           0
     31334 TIP3     4662     TIP3     OH2      OT      -0.834000       15.9994           0
     31335 TIP3     4662     TIP3     H1       HT       0.417000       1.00800           0
     31336 TIP3     4662     TIP3     H2       HT       0.417000       1.00800           0
     31337 TIP3     4663     TIP3     OH2      OT      -0.834000       15.9994           0
     31338 TIP3     4663     TIP3     H1       HT       0.417000       1.00800           0
     31339 TIP3     4663     TIP3     H2       HT       0.417000       1.00800           0
     31340 TIP3     4664     TIP3     OH2      OT      -0.834000       15.9994           0
     31341 TIP3     4664     TIP3     H1       HT       0.417000       1.00800           0
     31342 TIP3     4664     TIP3     H2       HT       0.417000       1.00800           0
     31343 TIP3     4665     TIP3     OH2      OT      -0.834000       15.9994           0
     31344 TIP3     4665     TIP3     H1       HT       0.417000       1.00800           0
     31345 TIP3     4665     TIP3     H2       HT       0.417000       1.00800           0
     31346 TIP3     4666     TIP3     OH2      OT      -0.834000       15.9994           0
     31347 TIP3     4666     TIP3     H1       HT       0.417000       1.00800           0
     31348 TIP3     4666     TIP3     H2       HT       0.417000       1.00800           0
     31349 TIP3     4667     TIP3     OH2      OT      -0.834000       15.9994           0
     31350 TIP3     4667     TIP3     H1       HT       0.417000       1.00800           0
     31351 TIP3     4667     TIP3     H2       HT       0.417000       1.00800           0
     31352 TIP3     4668     TIP3     OH2      OT      -0.834000       15.9994           0
     31353 TIP3     4668     TIP3     H1       HT       0.417000       1.00800           0
     31354 TIP3     4668     TIP3     H2       HT       0.417000       1.00800           0
     31355 TIP3     4669     TIP3     OH2      OT      -0.834000       15.9994           0
     31356 TIP3     4669     TIP3     H1       HT       0.417000       1.00800           0
     31357 TIP3     4669     TIP3     H2       HT       0.417000       1.00800           0
     31358 TIP3     4670     TIP3     OH2      OT      -0.834000       15.9994           0
     31359 TIP3     4670     TIP3     H1       HT       0.417000       1.00800           0
     31360 TIP3     4670     TIP3     H2       HT       0.417000       1.00800           0
     31361 TIP3     4671     TIP3     OH2      OT      -0.834000       15.9994           0
     31362 TIP3     4671     TIP3     H1       HT       0.417000       1.00800           0
     31363 TIP3     4671     TIP3     H2       HT       0.417000       1.00800           0
     31364 TIP3     4672     TIP3     OH2      OT      -0.834000       15.9994           0
     31365 TIP3     4672     TIP3     H1       HT       0.417000       1.00800           0
     31366 TIP3     4672     TIP3     H2       HT       0.417000       1.00800           0
     31367 TIP3     4673     TIP3     OH2      OT      -0.834000       15.9994           0
     31368 TIP3     4673     TIP3     H1       HT       0.417000       1.00800           0
     31369 TIP3     4673     TIP3     H2       HT       0.417000       1.00800           0
     31370 TIP3     4674     TIP3     OH2      OT      -0.834000       15.9994           0
     31371 TIP3     4674     TIP3     H1       HT       0.417000       1.00800           0
     31372 TIP3     4674     TIP3     H2       HT       0.417000       1.00800           0
     31373 TIP3     4675     TIP3     OH2      OT      -0.834000       15.9994           0
     31374 TIP3     4675     TIP3     H1       HT       0.417000       1.00800           0
     31375 TIP3     4675     TIP3     H2       HT       0.417000       1.00800           0
     31376 TIP3     4676     TIP3     OH2      OT      -0.834000       15.9994           0
     31377 TIP3     4676     TIP3     H1       HT       0.417000       1.00800           0
     31378 TIP3     4676     TIP3     H2       HT       0.417000       1.00800           0
     31379 TIP3     4677     TIP3     OH2      OT      -0.834000       15.9994           0
     31380 TIP3     4677     TIP3     H1       HT       0.417000       1.00800           0
     31381 TIP3     4677     TIP3     H2       HT       0.417000       1.00800           0
     31382 TIP3     4678     TIP3     OH2      OT      -0.834000       15.9994           0
     31383 TIP3     4678     TIP3     H1       HT       0.417000       1.00800           0
     31384 TIP3     4678     TIP3     H2       HT       0.417000       1.00800           0
     31385 TIP3     4679     TIP3     OH2      OT      -0.834000       15.9994           0
     31386 TIP3     4679     TIP3     H1       HT       0.417000       1.00800           0
     31387 TIP3     4679     TIP3     H2       HT       0.417000       1.00800           0
     31388 TIP3     4680     TIP3     OH2      OT      -0.834000       15.9994           0
     31389 TIP3     4680     TIP3     H1       HT       0.417000       1.00800           0
     31390 TIP3     4680     TIP3     H2       HT       0.417000       1.00800           0
     31391 TIP3     4681     TIP3     OH2      OT      -0.834000       15.9994           0
     31392 TIP3     4681     TIP3     H1       HT       0.417000       1.00800           0
     31393 TIP3     4681     TIP3     H2       HT       0.417000       1.00800           0
     31394 TIP3     4682     TIP3     OH2      OT      -0.834000       15.9994           0
     31395 TIP3     4682     TIP3     H1       HT       0.417000       1.00800           0
     31396 TIP3     4682     TIP3     H2       HT       0.417000       1.00800           0
     31397 TIP3     4683     TIP3     OH2      OT      -0.834000       15.9994           0
     31398 TIP3     4683     TIP3     H1       HT       0.417000       1.00800           0
     31399 TIP3     4683     TIP3     H2       HT       0.417000       1.00800           0
     31400 TIP3     4684     TIP3     OH2      OT      -0.834000       15.9994           0
     31401 TIP3     4684     TIP3     H1       HT       0.417000       1.00800           0
     31402 TIP3     4684     TIP3     H2       HT       0.417000       1.00800           0
     31403 TIP3     4685     TIP3     OH2      OT      -0.834000       15.9994           0
     31404 TIP3     4685     TIP3     H1       HT       0.417000       1.00800           0
     31405 TIP3     4685     TIP3     H2       HT       0.417000       1.00800           0
     31406 TIP3     4686     TIP3     OH2      OT      -0.834000       15.9994           0
     31407 TIP3     4686     TIP3     H1       HT       0.417000       1.00800           0
     31408 TIP3     4686     TIP3     H2       HT       0.417000       1.00800           0
     31409 TIP3     4687     TIP3     OH2      OT      -0.834000       15.9994           0
     31410 TIP3     4687     TIP3     H1       HT       0.417000       1.00800           0
     31411 TIP3     4687     TIP3     H2       HT       0.417000       1.00800           0
     31412 TIP3     4688     TIP3     OH2      OT      -0.834000       15.9994           0
     31413 TIP3     4688     TIP3     H1       HT       0.417000       1.00800           0
     31414 TIP3     4688     TIP3     H2       HT       0.417000       1.00800           0
     31415 TIP3     4689     TIP3     OH2      OT      -0.834000       15.9994           0
     31416 TIP3     4689     TIP3     H1       HT       0.417000       1.00800           0
     31417 TIP3     4689     TIP3     H2       HT       0.417000       1.00800           0
     31418 TIP3     4690     TIP3     OH2      OT      -0.834000       15.9994           0
     31419 TIP3     4690     TIP3     H1       HT       0.417000       1.00800           0
     31420 TIP3     4690     TIP3     H2       HT       0.417000       1.00800           0
     31421 TIP3     4691     TIP3     OH2      OT      -0.834000       15.9994           0
     31422 TIP3     4691     TIP3     H1       HT       0.417000       1.00800           0
     31423 TIP3     4691     TIP3     H2       HT       0.417000       1.00800           0
     31424 TIP3     4692     TIP3     OH2      OT      -0.834000       15.9994           0
     31425 TIP3     4692     TIP3     H1       HT       0.417000       1.00800           0
     31426 TIP3     4692     TIP3     H2       HT       0.417000       1.00800           0
     31427 TIP3     4693     TIP3     OH2      OT      -0.834000       15.9994           0
     31428 TIP3     4693     TIP3     H1       HT       0.417000       1.00800           0
     31429 TIP3     4693     TIP3     H2       HT       0.417000       1.00800           0
     31430 TIP3     4694     TIP3     OH2      OT      -0.834000       15.9994           0
     31431 TIP3     4694     TIP3     H1       HT       0.417000       1.00800           0
     31432 TIP3     4694     TIP3     H2       HT       0.417000       1.00800           0
     31433 TIP3     4695     TIP3     OH2      OT      -0.834000       15.9994           0
     31434 TIP3     4695     TIP3     H1       HT       0.417000       1.00800           0
     31435 TIP3     4695     TIP3     H2       HT       0.417000       1.00800           0
     31436 TIP3     4696     TIP3     OH2      OT      -0.834000       15.9994           0
     31437 TIP3     4696     TIP3     H1       HT       0.417000       1.00800           0
     31438 TIP3     4696     TIP3     H2       HT       0.417000       1.00800           0
     31439 TIP3     4697     TIP3     OH2      OT      -0.834000       15.9994           0
     31440 TIP3     4697     TIP3     H1       HT       0.417000       1.00800           0
     31441 TIP3     4697     TIP3     H2       HT       0.417000       1.00800           0
     31442 TIP3     4698     TIP3     OH2      OT      -0.834000       15.9994           0
     31443 TIP3     4698     TIP3     H1       HT       0.417000       1.00800           0
     31444 TIP3     4698     TIP3     H2       HT       0.417000       1.00800           0
     31445 TIP3     4699     TIP3     OH2      OT      -0.834000       15.9994           0
     31446 TIP3     4699     TIP3     H1       HT       0.417000       1.00800           0
     31447 TIP3     4699     TIP3     H2       HT       0.417000       1.00800           0
     31448 TIP3     4700     TIP3     OH2      OT      -0.834000       15.9994           0
     31449 TIP3     4700     TIP3     H1       HT       0.417000       1.00800           0
     31450 TIP3     4700     TIP3     H2       HT       0.417000       1.00800           0
     31451 TIP3     4701     TIP3     OH2      OT      -0.834000       15.9994           0
     31452 TIP3     4701     TIP3     H1       HT       0.417000       1.00800           0
     31453 TIP3     4701     TIP3     H2       HT       0.417000       1.00800           0
     31454 TIP3     4702     TIP3     OH2      OT      -0.834000       15.9994           0
     31455 TIP3     4702     TIP3     H1       HT       0.417000       1.00800           0
     31456 TIP3     4702     TIP3     H2       HT       0.417000       1.00800           0
     31457 TIP3     4703     TIP3     OH2      OT      -0.834000       15.9994           0
     31458 TIP3     4703     TIP3     H1       HT       0.417000       1.00800           0
     31459 TIP3     4703     TIP3     H2       HT       0.417000       1.00800           0
     31460 TIP3     4704     TIP3     OH2      OT      -0.834000       15.9994           0
     31461 TIP3     4704     TIP3     H1       HT       0.417000       1.00800           0
     31462 TIP3     4704     TIP3     H2       HT       0.417000       1.00800           0
     31463 TIP3     4705     TIP3     OH2      OT      -0.834000       15.9994           0
     31464 TIP3     4705     TIP3     H1       HT       0.417000       1.00800           0
     31465 TIP3     4705     TIP3     H2       HT       0.417000       1.00800           0
     31466 TIP3     4706     TIP3     OH2      OT      -0.834000       15.9994           0
     31467 TIP3     4706     TIP3     H1       HT       0.417000       1.00800           0
     31468 TIP3     4706     TIP3     H2       HT       0.417000       1.00800           0
     31469 TIP3     4707     TIP3     OH2      OT      -0.834000       15.9994           0
     31470 TIP3     4707     TIP3     H1       HT       0.417000       1.00800           0
     31471 TIP3     4707     TIP3     H2       HT       0.417000       1.00800           0
     31472 TIP3     4708     TIP3     OH2      OT      -0.834000       15.9994           0
     31473 TIP3     4708     TIP3     H1       HT       0.417000       1.00800           0
     31474 TIP3     4708     TIP3     H2       HT       0.417000       1.00800           0
     31475 TIP3     4709     TIP3     OH2      OT      -0.834000       15.9994           0
     31476 TIP3     4709     TIP3     H1       HT       0.417000       1.00800           0
     31477 TIP3     4709     TIP3     H2       HT       0.417000       1.00800           0
     31478 TIP3     4710     TIP3     OH2      OT      -0.834000       15.9994           0
     31479 TIP3     4710     TIP3     H1       HT       0.417000       1.00800           0
     31480 TIP3     4710     TIP3     H2       HT       0.417000       1.00800           0
     31481 TIP3     4711     TIP3     OH2      OT      -0.834000       15.9994           0
     31482 TIP3     4711     TIP3     H1       HT       0.417000       1.00800           0
     31483 TIP3     4711     TIP3     H2       HT       0.417000       1.00800           0
     31484 TIP3     4712     TIP3     OH2      OT      -0.834000       15.9994           0
     31485 TIP3     4712     TIP3     H1       HT       0.417000       1.00800           0
     31486 TIP3     4712     TIP3     H2       HT       0.417000       1.00800           0
     31487 TIP3     4713     TIP3     OH2      OT      -0.834000       15.9994           0
     31488 TIP3     4713     TIP3     H1       HT       0.417000       1.00800           0
     31489 TIP3     4713     TIP3     H2       HT       0.417000       1.00800           0
     31490 TIP3     4714     TIP3     OH2      OT      -0.834000       15.9994           0
     31491 TIP3     4714     TIP3     H1       HT       0.417000       1.00800           0
     31492 TIP3     4714     TIP3     H2       HT       0.417000       1.00800           0
     31493 TIP3     4715     TIP3     OH2      OT      -0.834000       15.9994           0
     31494 TIP3     4715     TIP3     H1       HT       0.417000       1.00800           0
     31495 TIP3     4715     TIP3     H2       HT       0.417000       1.00800           0
     31496 TIP3     4716     TIP3     OH2      OT      -0.834000       15.9994           0
     31497 TIP3     4716     TIP3     H1       HT       0.417000       1.00800           0
     31498 TIP3     4716     TIP3     H2       HT       0.417000       1.00800           0
     31499 TIP3     4717     TIP3     OH2      OT      -0.834000       15.9994           0
     31500 TIP3     4717     TIP3     H1       HT       0.417000       1.00800           0
     31501 TIP3     4717     TIP3     H2       HT       0.417000       1.00800           0
     31502 TIP3     4718     TIP3     OH2      OT      -0.834000       15.9994           0
     31503 TIP3     4718     TIP3     H1       HT       0.417000       1.00800           0
     31504 TIP3     4718     TIP3     H2       HT       0.417000       1.00800           0
     31505 TIP3     4719     TIP3     OH2      OT      -0.834000       15.9994           0
     31506 TIP3     4719     TIP3     H1       HT       0.417000       1.00800           0
     31507 TIP3     4719     TIP3     H2       HT       0.417000       1.00800           0
     31508 TIP3     4720     TIP3     OH2      OT      -0.834000       15.9994           0
     31509 TIP3     4720     TIP3     H1       HT       0.417000       1.00800           0
     31510 TIP3     4720     TIP3     H2       HT       0.417000       1.00800           0
     31511 TIP3     4721     TIP3     OH2      OT      -0.834000       15.9994           0
     31512 TIP3     4721     TIP3     H1       HT       0.417000       1.00800           0
     31513 TIP3     4721     TIP3     H2       HT       0.417000       1.00800           0
     31514 TIP3     4722     TIP3     OH2      OT      -0.834000       15.9994           0
     31515 TIP3     4722     TIP3     H1       HT       0.417000       1.00800           0
     31516 TIP3     4722     TIP3     H2       HT       0.417000       1.00800           0
     31517 TIP3     4723     TIP3     OH2      OT      -0.834000       15.9994           0
     31518 TIP3     4723     TIP3     H1       HT       0.417000       1.00800           0
     31519 TIP3     4723     TIP3     H2       HT       0.417000       1.00800           0
     31520 TIP3     4724     TIP3     OH2      OT      -0.834000       15.9994           0
     31521 TIP3     4724     TIP3     H1       HT       0.417000       1.00800           0
     31522 TIP3     4724     TIP3     H2       HT       0.417000       1.00800           0
     31523 TIP3     4725     TIP3     OH2      OT      -0.834000       15.9994           0
     31524 TIP3     4725     TIP3     H1       HT       0.417000       1.00800           0
     31525 TIP3     4725     TIP3     H2       HT       0.417000       1.00800           0
     31526 TIP3     4726     TIP3     OH2      OT      -0.834000       15.9994           0
     31527 TIP3     4726     TIP3     H1       HT       0.417000       1.00800           0
     31528 TIP3     4726     TIP3     H2       HT       0.417000       1.00800           0
     31529 TIP3     4727     TIP3     OH2      OT      -0.834000       15.9994           0
     31530 TIP3     4727     TIP3     H1       HT       0.417000       1.00800           0
     31531 TIP3     4727     TIP3     H2       HT       0.417000       1.00800           0
     31532 TIP3     4728     TIP3     OH2      OT      -0.834000       15.9994           0
     31533 TIP3     4728     TIP3     H1       HT       0.417000       1.00800           0
     31534 TIP3     4728     TIP3     H2       HT       0.417000       1.00800           0
     31535 TIP3     4729     TIP3     OH2      OT      -0.834000       15.9994           0
     31536 TIP3     4729     TIP3     H1       HT       0.417000       1.00800           0
     31537 TIP3     4729     TIP3     H2       HT       0.417000       1.00800           0
     31538 TIP3     4730     TIP3     OH2      OT      -0.834000       15.9994           0
     31539 TIP3     4730     TIP3     H1       HT       0.417000       1.00800           0
     31540 TIP3     4730     TIP3     H2       HT       0.417000       1.00800           0
     31541 TIP3     4731     TIP3     OH2      OT      -0.834000       15.9994           0
     31542 TIP3     4731     TIP3     H1       HT       0.417000       1.00800           0
     31543 TIP3     4731     TIP3     H2       HT       0.417000       1.00800           0
     31544 TIP3     4732     TIP3     OH2      OT      -0.834000       15.9994           0
     31545 TIP3     4732     TIP3     H1       HT       0.417000       1.00800           0
     31546 TIP3     4732     TIP3     H2       HT       0.417000       1.00800           0
     31547 TIP3     4733     TIP3     OH2      OT      -0.834000       15.9994           0
     31548 TIP3     4733     TIP3     H1       HT       0.417000       1.00800           0
     31549 TIP3     4733     TIP3     H2       HT       0.417000       1.00800           0
     31550 TIP3     4734     TIP3     OH2      OT      -0.834000       15.9994           0
     31551 TIP3     4734     TIP3     H1       HT       0.417000       1.00800           0
     31552 TIP3     4734     TIP3     H2       HT       0.417000       1.00800           0
     31553 TIP3     4735     TIP3     OH2      OT      -0.834000       15.9994           0
     31554 TIP3     4735     TIP3     H1       HT       0.417000       1.00800           0
     31555 TIP3     4735     TIP3     H2       HT       0.417000       1.00800           0
     31556 TIP3     4736     TIP3     OH2      OT      -0.834000       15.9994           0
     31557 TIP3     4736     TIP3     H1       HT       0.417000       1.00800           0
     31558 TIP3     4736     TIP3     H2       HT       0.417000       1.00800           0
     31559 TIP3     4737     TIP3     OH2      OT      -0.834000       15.9994           0
     31560 TIP3     4737     TIP3     H1       HT       0.417000       1.00800           0
     31561 TIP3     4737     TIP3     H2       HT       0.417000       1.00800           0
     31562 TIP3     4738     TIP3     OH2      OT      -0.834000       15.9994           0
     31563 TIP3     4738     TIP3     H1       HT       0.417000       1.00800           0
     31564 TIP3     4738     TIP3     H2       HT       0.417000       1.00800           0
     31565 TIP3     4739     TIP3     OH2      OT      -0.834000       15.9994           0
     31566 TIP3     4739     TIP3     H1       HT       0.417000       1.00800           0
     31567 TIP3     4739     TIP3     H2       HT       0.417000       1.00800           0
     31568 TIP3     4740     TIP3     OH2      OT      -0.834000       15.9994           0
     31569 TIP3     4740     TIP3     H1       HT       0.417000       1.00800           0
     31570 TIP3     4740     TIP3     H2       HT       0.417000       1.00800           0
     31571 TIP3     4741     TIP3     OH2      OT      -0.834000       15.9994           0
     31572 TIP3     4741     TIP3     H1       HT       0.417000       1.00800           0
     31573 TIP3     4741     TIP3     H2       HT       0.417000       1.00800           0
     31574 TIP3     4742     TIP3     OH2      OT      -0.834000       15.9994           0
     31575 TIP3     4742     TIP3     H1       HT       0.417000       1.00800           0
     31576 TIP3     4742     TIP3     H2       HT       0.417000       1.00800           0
     31577 TIP3     4743     TIP3     OH2      OT      -0.834000       15.9994           0
     31578 TIP3     4743     TIP3     H1       HT       0.417000       1.00800           0
     31579 TIP3     4743     TIP3     H2       HT       0.417000       1.00800           0
     31580 TIP3     4744     TIP3     OH2      OT      -0.834000       15.9994           0
     31581 TIP3     4744     TIP3     H1       HT       0.417000       1.00800           0
     31582 TIP3     4744     TIP3     H2       HT       0.417000       1.00800           0
     31583 TIP3     4745     TIP3     OH2      OT      -0.834000       15.9994           0
     31584 TIP3     4745     TIP3     H1       HT       0.417000       1.00800           0
     31585 TIP3     4745     TIP3     H2       HT       0.417000       1.00800           0
     31586 TIP3     4746     TIP3     OH2      OT      -0.834000       15.9994           0
     31587 TIP3     4746     TIP3     H1       HT       0.417000       1.00800           0
     31588 TIP3     4746     TIP3     H2       HT       0.417000       1.00800           0
     31589 TIP3     4747     TIP3     OH2      OT      -0.834000       15.9994           0
     31590 TIP3     4747     TIP3     H1       HT       0.417000       1.00800           0
     31591 TIP3     4747     TIP3     H2       HT       0.417000       1.00800           0
     31592 TIP3     4748     TIP3     OH2      OT      -0.834000       15.9994           0
     31593 TIP3     4748     TIP3     H1       HT       0.417000       1.00800           0
     31594 TIP3     4748     TIP3     H2       HT       0.417000       1.00800           0
     31595 TIP3     4749     TIP3     OH2      OT      -0.834000       15.9994           0
     31596 TIP3     4749     TIP3     H1       HT       0.417000       1.00800           0
     31597 TIP3     4749     TIP3     H2       HT       0.417000       1.00800           0
     31598 TIP3     4750     TIP3     OH2      OT      -0.834000       15.9994           0
     31599 TIP3     4750     TIP3     H1       HT       0.417000       1.00800           0
     31600 TIP3     4750     TIP3     H2       HT       0.417000       1.00800           0
     31601 TIP3     4751     TIP3     OH2      OT      -0.834000       15.9994           0
     31602 TIP3     4751     TIP3     H1       HT       0.417000       1.00800           0
     31603 TIP3     4751     TIP3     H2       HT       0.417000       1.00800           0
     31604 TIP3     4752     TIP3     OH2      OT      -0.834000       15.9994           0
     31605 TIP3     4752     TIP3     H1       HT       0.417000       1.00800           0
     31606 TIP3     4752     TIP3     H2       HT       0.417000       1.00800           0
     31607 TIP3     4753     TIP3     OH2      OT      -0.834000       15.9994           0
     31608 TIP3     4753     TIP3     H1       HT       0.417000       1.00800           0
     31609 TIP3     4753     TIP3     H2       HT       0.417000       1.00800           0
     31610 TIP3     4754     TIP3     OH2      OT      -0.834000       15.9994           0
     31611 TIP3     4754     TIP3     H1       HT       0.417000       1.00800           0
     31612 TIP3     4754     TIP3     H2       HT       0.417000       1.00800           0
     31613 TIP3     4755     TIP3     OH2      OT      -0.834000       15.9994           0
     31614 TIP3     4755     TIP3     H1       HT       0.417000       1.00800           0
     31615 TIP3     4755     TIP3     H2       HT       0.417000       1.00800           0
     31616 TIP3     4756     TIP3     OH2      OT      -0.834000       15.9994           0
     31617 TIP3     4756     TIP3     H1       HT       0.417000       1.00800           0
     31618 TIP3     4756     TIP3     H2       HT       0.417000       1.00800           0
     31619 TIP3     4757     TIP3     OH2      OT      -0.834000       15.9994           0
     31620 TIP3     4757     TIP3     H1       HT       0.417000       1.00800           0
     31621 TIP3     4757     TIP3     H2       HT       0.417000       1.00800           0
     31622 TIP3     4758     TIP3     OH2      OT      -0.834000       15.9994           0
     31623 TIP3     4758     TIP3     H1       HT       0.417000       1.00800           0
     31624 TIP3     4758     TIP3     H2       HT       0.417000       1.00800           0
     31625 TIP3     4759     TIP3     OH2      OT      -0.834000       15.9994           0
     31626 TIP3     4759     TIP3     H1       HT       0.417000       1.00800           0
     31627 TIP3     4759     TIP3     H2       HT       0.417000       1.00800           0
     31628 TIP3     4760     TIP3     OH2      OT      -0.834000       15.9994           0
     31629 TIP3     4760     TIP3     H1       HT       0.417000       1.00800           0
     31630 TIP3     4760     TIP3     H2       HT       0.417000       1.00800           0
     31631 TIP3     4761     TIP3     OH2      OT      -0.834000       15.9994           0
     31632 TIP3     4761     TIP3     H1       HT       0.417000       1.00800           0
     31633 TIP3     4761     TIP3     H2       HT       0.417000       1.00800           0
     31634 TIP3     4762     TIP3     OH2      OT      -0.834000       15.9994           0
     31635 TIP3     4762     TIP3     H1       HT       0.417000       1.00800           0
     31636 TIP3     4762     TIP3     H2       HT       0.417000       1.00800           0
     31637 TIP3     4763     TIP3     OH2      OT      -0.834000       15.9994           0
     31638 TIP3     4763     TIP3     H1       HT       0.417000       1.00800           0
     31639 TIP3     4763     TIP3     H2       HT       0.417000       1.00800           0
     31640 TIP3     4764     TIP3     OH2      OT      -0.834000       15.9994           0
     31641 TIP3     4764     TIP3     H1       HT       0.417000       1.00800           0
     31642 TIP3     4764     TIP3     H2       HT       0.417000       1.00800           0
     31643 TIP3     4765     TIP3     OH2      OT      -0.834000       15.9994           0
     31644 TIP3     4765     TIP3     H1       HT       0.417000       1.00800           0
     31645 TIP3     4765     TIP3     H2       HT       0.417000       1.00800           0
     31646 TIP3     4766     TIP3     OH2      OT      -0.834000       15.9994           0
     31647 TIP3     4766     TIP3     H1       HT       0.417000       1.00800           0
     31648 TIP3     4766     TIP3     H2       HT       0.417000       1.00800           0
     31649 TIP3     4767     TIP3     OH2      OT      -0.834000       15.9994           0
     31650 TIP3     4767     TIP3     H1       HT       0.417000       1.00800           0
     31651 TIP3     4767     TIP3     H2       HT       0.417000       1.00800           0
     31652 TIP3     4768     TIP3     OH2      OT      -0.834000       15.9994           0
     31653 TIP3     4768     TIP3     H1       HT       0.417000       1.00800           0
     31654 TIP3     4768     TIP3     H2       HT       0.417000       1.00800           0
     31655 TIP3     4769     TIP3     OH2      OT      -0.834000       15.9994           0
     31656 TIP3     4769     TIP3     H1       HT       0.417000       1.00800           0
     31657 TIP3     4769     TIP3     H2       HT       0.417000       1.00800           0
     31658 TIP3     4770     TIP3     OH2      OT      -0.834000       15.9994           0
     31659 TIP3     4770     TIP3     H1       HT       0.417000       1.00800           0
     31660 TIP3     4770     TIP3     H2       HT       0.417000       1.00800           0
     31661 TIP3     4771     TIP3     OH2      OT      -0.834000       15.9994           0
     31662 TIP3     4771     TIP3     H1       HT       0.417000       1.00800           0
     31663 TIP3     4771     TIP3     H2       HT       0.417000       1.00800           0
     31664 TIP3     4772     TIP3     OH2      OT      -0.834000       15.9994           0
     31665 TIP3     4772     TIP3     H1       HT       0.417000       1.00800           0
     31666 TIP3     4772     TIP3     H2       HT       0.417000       1.00800           0
     31667 TIP3     4773     TIP3     OH2      OT      -0.834000       15.9994           0
     31668 TIP3     4773     TIP3     H1       HT       0.417000       1.00800           0
     31669 TIP3     4773     TIP3     H2       HT       0.417000       1.00800           0
     31670 TIP3     4774     TIP3     OH2      OT      -0.834000       15.9994           0
     31671 TIP3     4774     TIP3     H1       HT       0.417000       1.00800           0
     31672 TIP3     4774     TIP3     H2       HT       0.417000       1.00800           0
     31673 TIP3     4775     TIP3     OH2      OT      -0.834000       15.9994           0
     31674 TIP3     4775     TIP3     H1       HT       0.417000       1.00800           0
     31675 TIP3     4775     TIP3     H2       HT       0.417000       1.00800           0
     31676 TIP3     4776     TIP3     OH2      OT      -0.834000       15.9994           0
     31677 TIP3     4776     TIP3     H1       HT       0.417000       1.00800           0
     31678 TIP3     4776     TIP3     H2       HT       0.417000       1.00800           0
     31679 TIP3     4777     TIP3     OH2      OT      -0.834000       15.9994           0
     31680 TIP3     4777     TIP3     H1       HT       0.417000       1.00800           0
     31681 TIP3     4777     TIP3     H2       HT       0.417000       1.00800           0
     31682 TIP3     4778     TIP3     OH2      OT      -0.834000       15.9994           0
     31683 TIP3     4778     TIP3     H1       HT       0.417000       1.00800           0
     31684 TIP3     4778     TIP3     H2       HT       0.417000       1.00800           0
     31685 TIP3     4779     TIP3     OH2      OT      -0.834000       15.9994           0
     31686 TIP3     4779     TIP3     H1       HT       0.417000       1.00800           0
     31687 TIP3     4779     TIP3     H2       HT       0.417000       1.00800           0
     31688 TIP3     4780     TIP3     OH2      OT      -0.834000       15.9994           0
     31689 TIP3     4780     TIP3     H1       HT       0.417000       1.00800           0
     31690 TIP3     4780     TIP3     H2       HT       0.417000       1.00800           0
     31691 TIP3     4781     TIP3     OH2      OT      -0.834000       15.9994           0
     31692 TIP3     4781     TIP3     H1       HT       0.417000       1.00800           0
     31693 TIP3     4781     TIP3     H2       HT       0.417000       1.00800           0
     31694 TIP3     4782     TIP3     OH2      OT      -0.834000       15.9994           0
     31695 TIP3     4782     TIP3     H1       HT       0.417000       1.00800           0
     31696 TIP3     4782     TIP3     H2       HT       0.417000       1.00800           0
     31697 TIP3     4783     TIP3     OH2      OT      -0.834000       15.9994           0
     31698 TIP3     4783     TIP3     H1       HT       0.417000       1.00800           0
     31699 TIP3     4783     TIP3     H2       HT       0.417000       1.00800           0
     31700 TIP3     4784     TIP3     OH2      OT      -0.834000       15.9994           0
     31701 TIP3     4784     TIP3     H1       HT       0.417000       1.00800           0
     31702 TIP3     4784     TIP3     H2       HT       0.417000       1.00800           0
     31703 TIP3     4785     TIP3     OH2      OT      -0.834000       15.9994           0
     31704 TIP3     4785     TIP3     H1       HT       0.417000       1.00800           0
     31705 TIP3     4785     TIP3     H2       HT       0.417000       1.00800           0
     31706 TIP3     4786     TIP3     OH2      OT      -0.834000       15.9994           0
     31707 TIP3     4786     TIP3     H1       HT       0.417000       1.00800           0
     31708 TIP3     4786     TIP3     H2       HT       0.417000       1.00800           0
     31709 TIP3     4787     TIP3     OH2      OT      -0.834000       15.9994           0
     31710 TIP3     4787     TIP3     H1       HT       0.417000       1.00800           0
     31711 TIP3     4787     TIP3     H2       HT       0.417000       1.00800           0
     31712 TIP3     4788     TIP3     OH2      OT      -0.834000       15.9994           0
     31713 TIP3     4788     TIP3     H1       HT       0.417000       1.00800           0
     31714 TIP3     4788     TIP3     H2       HT       0.417000       1.00800           0
     31715 TIP3     4789     TIP3     OH2      OT      -0.834000       15.9994           0
     31716 TIP3     4789     TIP3     H1       HT       0.417000       1.00800           0
     31717 TIP3     4789     TIP3     H2       HT       0.417000       1.00800           0
     31718 TIP3     4790     TIP3     OH2      OT      -0.834000       15.9994           0
     31719 TIP3     4790     TIP3     H1       HT       0.417000       1.00800           0
     31720 TIP3     4790     TIP3     H2       HT       0.417000       1.00800           0
     31721 TIP3     4791     TIP3     OH2      OT      -0.834000       15.9994           0
     31722 TIP3     4791     TIP3     H1       HT       0.417000       1.00800           0
     31723 TIP3     4791     TIP3     H2       HT       0.417000       1.00800           0
     31724 TIP3     4792     TIP3     OH2      OT      -0.834000       15.9994           0
     31725 TIP3     4792     TIP3     H1       HT       0.417000       1.00800           0
     31726 TIP3     4792     TIP3     H2       HT       0.417000       1.00800           0
     31727 TIP3     4793     TIP3     OH2      OT      -0.834000       15.9994           0
     31728 TIP3     4793     TIP3     H1       HT       0.417000       1.00800           0
     31729 TIP3     4793     TIP3     H2       HT       0.417000       1.00800           0
     31730 TIP3     4794     TIP3     OH2      OT      -0.834000       15.9994           0
     31731 TIP3     4794     TIP3     H1       HT       0.417000       1.00800           0
     31732 TIP3     4794     TIP3     H2       HT       0.417000       1.00800           0
     31733 TIP3     4795     TIP3     OH2      OT      -0.834000       15.9994           0
     31734 TIP3     4795     TIP3     H1       HT       0.417000       1.00800           0
     31735 TIP3     4795     TIP3     H2       HT       0.417000       1.00800           0
     31736 TIP3     4796     TIP3     OH2      OT      -0.834000       15.9994           0
     31737 TIP3     4796     TIP3     H1       HT       0.417000       1.00800           0
     31738 TIP3     4796     TIP3     H2       HT       0.417000       1.00800           0
     31739 TIP3     4797     TIP3     OH2      OT      -0.834000       15.9994           0
     31740 TIP3     4797     TIP3     H1       HT       0.417000       1.00800           0
     31741 TIP3     4797     TIP3     H2       HT       0.417000       1.00800           0
     31742 TIP3     4798     TIP3     OH2      OT      -0.834000       15.9994           0
     31743 TIP3     4798     TIP3     H1       HT       0.417000       1.00800           0
     31744 TIP3     4798     TIP3     H2       HT       0.417000       1.00800           0
     31745 TIP3     4799     TIP3     OH2      OT      -0.834000       15.9994           0
     31746 TIP3     4799     TIP3     H1       HT       0.417000       1.00800           0
     31747 TIP3     4799     TIP3     H2       HT       0.417000       1.00800           0
     31748 TIP3     4800     TIP3     OH2      OT      -0.834000       15.9994           0
     31749 TIP3     4800     TIP3     H1       HT       0.417000       1.00800           0
     31750 TIP3     4800     TIP3     H2       HT       0.417000       1.00800           0
     31751 TIP3     4801     TIP3     OH2      OT      -0.834000       15.9994           0
     31752 TIP3     4801     TIP3     H1       HT       0.417000       1.00800           0
     31753 TIP3     4801     TIP3     H2       HT       0.417000       1.00800           0
     31754 TIP3     4802     TIP3     OH2      OT      -0.834000       15.9994           0
     31755 TIP3     4802     TIP3     H1       HT       0.417000       1.00800           0
     31756 TIP3     4802     TIP3     H2       HT       0.417000       1.00800           0
     31757 TIP3     4803     TIP3     OH2      OT      -0.834000       15.9994           0
     31758 TIP3     4803     TIP3     H1       HT       0.417000       1.00800           0
     31759 TIP3     4803     TIP3     H2       HT       0.417000       1.00800           0
     31760 TIP3     4804     TIP3     OH2      OT      -0.834000       15.9994           0
     31761 TIP3     4804     TIP3     H1       HT       0.417000       1.00800           0
     31762 TIP3     4804     TIP3     H2       HT       0.417000       1.00800           0
     31763 TIP3     4805     TIP3     OH2      OT      -0.834000       15.9994           0
     31764 TIP3     4805     TIP3     H1       HT       0.417000       1.00800           0
     31765 TIP3     4805     TIP3     H2       HT       0.417000       1.00800           0
     31766 TIP3     4806     TIP3     OH2      OT      -0.834000       15.9994           0
     31767 TIP3     4806     TIP3     H1       HT       0.417000       1.00800           0
     31768 TIP3     4806     TIP3     H2       HT       0.417000       1.00800           0
     31769 TIP3     4807     TIP3     OH2      OT      -0.834000       15.9994           0
     31770 TIP3     4807     TIP3     H1       HT       0.417000       1.00800           0
     31771 TIP3     4807     TIP3     H2       HT       0.417000       1.00800           0
     31772 TIP3     4808     TIP3     OH2      OT      -0.834000       15.9994           0
     31773 TIP3     4808     TIP3     H1       HT       0.417000       1.00800           0
     31774 TIP3     4808     TIP3     H2       HT       0.417000       1.00800           0
     31775 TIP3     4809     TIP3     OH2      OT      -0.834000       15.9994           0
     31776 TIP3     4809     TIP3     H1       HT       0.417000       1.00800           0
     31777 TIP3     4809     TIP3     H2       HT       0.417000       1.00800           0
     31778 TIP3     4810     TIP3     OH2      OT      -0.834000       15.9994           0
     31779 TIP3     4810     TIP3     H1       HT       0.417000       1.00800           0
     31780 TIP3     4810     TIP3     H2       HT       0.417000       1.00800           0
     31781 TIP3     4811     TIP3     OH2      OT      -0.834000       15.9994           0
     31782 TIP3     4811     TIP3     H1       HT       0.417000       1.00800           0
     31783 TIP3     4811     TIP3     H2       HT       0.417000       1.00800           0
     31784 TIP3     4812     TIP3     OH2      OT      -0.834000       15.9994           0
     31785 TIP3     4812     TIP3     H1       HT       0.417000       1.00800           0
     31786 TIP3     4812     TIP3     H2       HT       0.417000       1.00800           0
     31787 TIP3     4813     TIP3     OH2      OT      -0.834000       15.9994           0
     31788 TIP3     4813     TIP3     H1       HT       0.417000       1.00800           0
     31789 TIP3     4813     TIP3     H2       HT       0.417000       1.00800           0
     31790 TIP3     4814     TIP3     OH2      OT      -0.834000       15.9994           0
     31791 TIP3     4814     TIP3     H1       HT       0.417000       1.00800           0
     31792 TIP3     4814     TIP3     H2       HT       0.417000       1.00800           0
     31793 TIP3     4815     TIP3     OH2      OT      -0.834000       15.9994           0
     31794 TIP3     4815     TIP3     H1       HT       0.417000       1.00800           0
     31795 TIP3     4815     TIP3     H2       HT       0.417000       1.00800           0
     31796 TIP3     4816     TIP3     OH2      OT      -0.834000       15.9994           0
     31797 TIP3     4816     TIP3     H1       HT       0.417000       1.00800           0
     31798 TIP3     4816     TIP3     H2       HT       0.417000       1.00800           0
     31799 TIP3     4817     TIP3     OH2      OT      -0.834000       15.9994           0
     31800 TIP3     4817     TIP3     H1       HT       0.417000       1.00800           0
     31801 TIP3     4817     TIP3     H2       HT       0.417000       1.00800           0
     31802 TIP3     4818     TIP3     OH2      OT      -0.834000       15.9994           0
     31803 TIP3     4818     TIP3     H1       HT       0.417000       1.00800           0
     31804 TIP3     4818     TIP3     H2       HT       0.417000       1.00800           0
     31805 TIP3     4819     TIP3     OH2      OT      -0.834000       15.9994           0
     31806 TIP3     4819     TIP3     H1       HT       0.417000       1.00800           0
     31807 TIP3     4819     TIP3     H2       HT       0.417000       1.00800           0
     31808 TIP3     4820     TIP3     OH2      OT      -0.834000       15.9994           0
     31809 TIP3     4820     TIP3     H1       HT       0.417000       1.00800           0
     31810 TIP3     4820     TIP3     H2       HT       0.417000       1.00800           0
     31811 TIP3     4821     TIP3     OH2      OT      -0.834000       15.9994           0
     31812 TIP3     4821     TIP3     H1       HT       0.417000       1.00800           0
     31813 TIP3     4821     TIP3     H2       HT       0.417000       1.00800           0
     31814 TIP3     4822     TIP3     OH2      OT      -0.834000       15.9994           0
     31815 TIP3     4822     TIP3     H1       HT       0.417000       1.00800           0
     31816 TIP3     4822     TIP3     H2       HT       0.417000       1.00800           0
     31817 TIP3     4823     TIP3     OH2      OT      -0.834000       15.9994           0
     31818 TIP3     4823     TIP3     H1       HT       0.417000       1.00800           0
     31819 TIP3     4823     TIP3     H2       HT       0.417000       1.00800           0
     31820 TIP3     4824     TIP3     OH2      OT      -0.834000       15.9994           0
     31821 TIP3     4824     TIP3     H1       HT       0.417000       1.00800           0
     31822 TIP3     4824     TIP3     H2       HT       0.417000       1.00800           0
     31823 TIP3     4825     TIP3     OH2      OT      -0.834000       15.9994           0
     31824 TIP3     4825     TIP3     H1       HT       0.417000       1.00800           0
     31825 TIP3     4825     TIP3     H2       HT       0.417000       1.00800           0
     31826 TIP3     4826     TIP3     OH2      OT      -0.834000       15.9994           0
     31827 TIP3     4826     TIP3     H1       HT       0.417000       1.00800           0
     31828 TIP3     4826     TIP3     H2       HT       0.417000       1.00800           0
     31829 TIP3     4827     TIP3     OH2      OT      -0.834000       15.9994           0
     31830 TIP3     4827     TIP3     H1       HT       0.417000       1.00800           0
     31831 TIP3     4827     TIP3     H2       HT       0.417000       1.00800           0
     31832 TIP3     4828     TIP3     OH2      OT      -0.834000       15.9994           0
     31833 TIP3     4828     TIP3     H1       HT       0.417000       1.00800           0
     31834 TIP3     4828     TIP3     H2       HT       0.417000       1.00800           0
     31835 TIP3     4829     TIP3     OH2      OT      -0.834000       15.9994           0
     31836 TIP3     4829     TIP3     H1       HT       0.417000       1.00800           0
     31837 TIP3     4829     TIP3     H2       HT       0.417000       1.00800           0
     31838 TIP3     4830     TIP3     OH2      OT      -0.834000       15.9994           0
     31839 TIP3     4830     TIP3     H1       HT       0.417000       1.00800           0
     31840 TIP3     4830     TIP3     H2       HT       0.417000       1.00800           0
     31841 TIP3     4831     TIP3     OH2      OT      -0.834000       15.9994           0
     31842 TIP3     4831     TIP3     H1       HT       0.417000       1.00800           0
     31843 TIP3     4831     TIP3     H2       HT       0.417000       1.00800           0
     31844 TIP3     4832     TIP3     OH2      OT      -0.834000       15.9994           0
     31845 TIP3     4832     TIP3     H1       HT       0.417000       1.00800           0
     31846 TIP3     4832     TIP3     H2       HT       0.417000       1.00800           0
     31847 TIP3     4833     TIP3     OH2      OT      -0.834000       15.9994           0
     31848 TIP3     4833     TIP3     H1       HT       0.417000       1.00800           0
     31849 TIP3     4833     TIP3     H2       HT       0.417000       1.00800           0
     31850 TIP3     4834     TIP3     OH2      OT      -0.834000       15.9994           0
     31851 TIP3     4834     TIP3     H1       HT       0.417000       1.00800           0
     31852 TIP3     4834     TIP3     H2       HT       0.417000       1.00800           0
     31853 TIP3     4835     TIP3     OH2      OT      -0.834000       15.9994           0
     31854 TIP3     4835     TIP3     H1       HT       0.417000       1.00800           0
     31855 TIP3     4835     TIP3     H2       HT       0.417000       1.00800           0
     31856 TIP3     4836     TIP3     OH2      OT      -0.834000       15.9994           0
     31857 TIP3     4836     TIP3     H1       HT       0.417000       1.00800           0
     31858 TIP3     4836     TIP3     H2       HT       0.417000       1.00800           0
     31859 TIP3     4837     TIP3     OH2      OT      -0.834000       15.9994           0
     31860 TIP3     4837     TIP3     H1       HT       0.417000       1.00800           0
     31861 TIP3     4837     TIP3     H2       HT       0.417000       1.00800           0
     31862 TIP3     4838     TIP3     OH2      OT      -0.834000       15.9994           0
     31863 TIP3     4838     TIP3     H1       HT       0.417000       1.00800           0
     31864 TIP3     4838     TIP3     H2       HT       0.417000       1.00800           0
     31865 TIP3     4839     TIP3     OH2      OT      -0.834000       15.9994           0
     31866 TIP3     4839     TIP3     H1       HT       0.417000       1.00800           0
     31867 TIP3     4839     TIP3     H2       HT       0.417000       1.00800           0
     31868 TIP3     4840     TIP3     OH2      OT      -0.834000       15.9994           0
     31869 TIP3     4840     TIP3     H1       HT       0.417000       1.00800           0
     31870 TIP3     4840     TIP3     H2       HT       0.417000       1.00800           0
     31871 TIP3     4841     TIP3     OH2      OT      -0.834000       15.9994           0
     31872 TIP3     4841     TIP3     H1       HT       0.417000       1.00800           0
     31873 TIP3     4841     TIP3     H2       HT       0.417000       1.00800           0
     31874 TIP3     4842     TIP3     OH2      OT      -0.834000       15.9994           0
     31875 TIP3     4842     TIP3     H1       HT       0.417000       1.00800           0
     31876 TIP3     4842     TIP3     H2       HT       0.417000       1.00800           0
     31877 TIP3     4843     TIP3     OH2      OT      -0.834000       15.9994           0
     31878 TIP3     4843     TIP3     H1       HT       0.417000       1.00800           0
     31879 TIP3     4843     TIP3     H2       HT       0.417000       1.00800           0
     31880 TIP3     4844     TIP3     OH2      OT      -0.834000       15.9994           0
     31881 TIP3     4844     TIP3     H1       HT       0.417000       1.00800           0
     31882 TIP3     4844     TIP3     H2       HT       0.417000       1.00800           0
     31883 TIP3     4845     TIP3     OH2      OT      -0.834000       15.9994           0
     31884 TIP3     4845     TIP3     H1       HT       0.417000       1.00800           0
     31885 TIP3     4845     TIP3     H2       HT       0.417000       1.00800           0
     31886 TIP3     4846     TIP3     OH2      OT      -0.834000       15.9994           0
     31887 TIP3     4846     TIP3     H1       HT       0.417000       1.00800           0
     31888 TIP3     4846     TIP3     H2       HT       0.417000       1.00800           0
     31889 TIP3     4847     TIP3     OH2      OT      -0.834000       15.9994           0
     31890 TIP3     4847     TIP3     H1       HT       0.417000       1.00800           0
     31891 TIP3     4847     TIP3     H2       HT       0.417000       1.00800           0
     31892 TIP3     4848     TIP3     OH2      OT      -0.834000       15.9994           0
     31893 TIP3     4848     TIP3     H1       HT       0.417000       1.00800           0
     31894 TIP3     4848     TIP3     H2       HT       0.417000       1.00800           0
     31895 TIP3     4849     TIP3     OH2      OT      -0.834000       15.9994           0
     31896 TIP3     4849     TIP3     H1       HT       0.417000       1.00800           0
     31897 TIP3     4849     TIP3     H2       HT       0.417000       1.00800           0
     31898 TIP3     4850     TIP3     OH2      OT      -0.834000       15.9994           0
     31899 TIP3     4850     TIP3     H1       HT       0.417000       1.00800           0
     31900 TIP3     4850     TIP3     H2       HT       0.417000       1.00800           0
     31901 TIP3     4851     TIP3     OH2      OT      -0.834000       15.9994           0
     31902 TIP3     4851     TIP3     H1       HT       0.417000       1.00800           0
     31903 TIP3     4851     TIP3     H2       HT       0.417000       1.00800           0
     31904 TIP3     4852     TIP3     OH2      OT      -0.834000       15.9994           0
     31905 TIP3     4852     TIP3     H1       HT       0.417000       1.00800           0
     31906 TIP3     4852     TIP3     H2       HT       0.417000       1.00800           0
     31907 TIP3     4853     TIP3     OH2      OT      -0.834000       15.9994           0
     31908 TIP3     4853     TIP3     H1       HT       0.417000       1.00800           0
     31909 TIP3     4853     TIP3     H2       HT       0.417000       1.00800           0
     31910 TIP3     4854     TIP3     OH2      OT      -0.834000       15.9994           0
     31911 TIP3     4854     TIP3     H1       HT       0.417000       1.00800           0
     31912 TIP3     4854     TIP3     H2       HT       0.417000       1.00800           0
     31913 TIP3     4855     TIP3     OH2      OT      -0.834000       15.9994           0
     31914 TIP3     4855     TIP3     H1       HT       0.417000       1.00800           0
     31915 TIP3     4855     TIP3     H2       HT       0.417000       1.00800           0
     31916 TIP3     4856     TIP3     OH2      OT      -0.834000       15.9994           0
     31917 TIP3     4856     TIP3     H1       HT       0.417000       1.00800           0
     31918 TIP3     4856     TIP3     H2       HT       0.417000       1.00800           0
     31919 TIP3     4857     TIP3     OH2      OT      -0.834000       15.9994           0
     31920 TIP3     4857     TIP3     H1       HT       0.417000       1.00800           0
     31921 TIP3     4857     TIP3     H2       HT       0.417000       1.00800           0
     31922 TIP3     4858     TIP3     OH2      OT      -0.834000       15.9994           0
     31923 TIP3     4858     TIP3     H1       HT       0.417000       1.00800           0
     31924 TIP3     4858     TIP3     H2       HT       0.417000       1.00800           0
     31925 TIP3     4859     TIP3     OH2      OT      -0.834000       15.9994           0
     31926 TIP3     4859     TIP3     H1       HT       0.417000       1.00800           0
     31927 TIP3     4859     TIP3     H2       HT       0.417000       1.00800           0
     31928 TIP3     4860     TIP3     OH2      OT      -0.834000       15.9994           0
     31929 TIP3     4860     TIP3     H1       HT       0.417000       1.00800           0
     31930 TIP3     4860     TIP3     H2       HT       0.417000       1.00800           0
     31931 TIP3     4861     TIP3     OH2      OT      -0.834000       15.9994           0
     31932 TIP3     4861     TIP3     H1       HT       0.417000       1.00800           0
     31933 TIP3     4861     TIP3     H2       HT       0.417000       1.00800           0
     31934 TIP3     4862     TIP3     OH2      OT      -0.834000       15.9994           0
     31935 TIP3     4862     TIP3     H1       HT       0.417000       1.00800           0
     31936 TIP3     4862     TIP3     H2       HT       0.417000       1.00800           0
     31937 TIP3     4863     TIP3     OH2      OT      -0.834000       15.9994           0
     31938 TIP3     4863     TIP3     H1       HT       0.417000       1.00800           0
     31939 TIP3     4863     TIP3     H2       HT       0.417000       1.00800           0
     31940 TIP3     4864     TIP3     OH2      OT      -0.834000       15.9994           0
     31941 TIP3     4864     TIP3     H1       HT       0.417000       1.00800           0
     31942 TIP3     4864     TIP3     H2       HT       0.417000       1.00800           0
     31943 TIP3     4865     TIP3     OH2      OT      -0.834000       15.9994           0
     31944 TIP3     4865     TIP3     H1       HT       0.417000       1.00800           0
     31945 TIP3     4865     TIP3     H2       HT       0.417000       1.00800           0
     31946 TIP3     4866     TIP3     OH2      OT      -0.834000       15.9994           0
     31947 TIP3     4866     TIP3     H1       HT       0.417000       1.00800           0
     31948 TIP3     4866     TIP3     H2       HT       0.417000       1.00800           0
     31949 TIP3     4867     TIP3     OH2      OT      -0.834000       15.9994           0
     31950 TIP3     4867     TIP3     H1       HT       0.417000       1.00800           0
     31951 TIP3     4867     TIP3     H2       HT       0.417000       1.00800           0
     31952 TIP3     4868     TIP3     OH2      OT      -0.834000       15.9994           0
     31953 TIP3     4868     TIP3     H1       HT       0.417000       1.00800           0
     31954 TIP3     4868     TIP3     H2       HT       0.417000       1.00800           0
     31955 TIP3     4869     TIP3     OH2      OT      -0.834000       15.9994           0
     31956 TIP3     4869     TIP3     H1       HT       0.417000       1.00800           0
     31957 TIP3     4869     TIP3     H2       HT       0.417000       1.00800           0
     31958 TIP3     4870     TIP3     OH2      OT      -0.834000       15.9994           0
     31959 TIP3     4870     TIP3     H1       HT       0.417000       1.00800           0
     31960 TIP3     4870     TIP3     H2       HT       0.417000       1.00800           0
     31961 TIP3     4871     TIP3     OH2      OT      -0.834000       15.9994           0
     31962 TIP3     4871     TIP3     H1       HT       0.417000       1.00800           0
     31963 TIP3     4871     TIP3     H2       HT       0.417000       1.00800           0
     31964 TIP3     4872     TIP3     OH2      OT      -0.834000       15.9994           0
     31965 TIP3     4872     TIP3     H1       HT       0.417000       1.00800           0
     31966 TIP3     4872     TIP3     H2       HT       0.417000       1.00800           0
     31967 TIP3     4873     TIP3     OH2      OT      -0.834000       15.9994           0
     31968 TIP3     4873     TIP3     H1       HT       0.417000       1.00800           0
     31969 TIP3     4873     TIP3     H2       HT       0.417000       1.00800           0
     31970 TIP3     4874     TIP3     OH2      OT      -0.834000       15.9994           0
     31971 TIP3     4874     TIP3     H1       HT       0.417000       1.00800           0
     31972 TIP3     4874     TIP3     H2       HT       0.417000       1.00800           0
     31973 TIP3     4875     TIP3     OH2      OT      -0.834000       15.9994           0
     31974 TIP3     4875     TIP3     H1       HT       0.417000       1.00800           0
     31975 TIP3     4875     TIP3     H2       HT       0.417000       1.00800           0
     31976 TIP3     4876     TIP3     OH2      OT      -0.834000       15.9994           0
     31977 TIP3     4876     TIP3     H1       HT       0.417000       1.00800           0
     31978 TIP3     4876     TIP3     H2       HT       0.417000       1.00800           0
     31979 TIP3     4877     TIP3     OH2      OT      -0.834000       15.9994           0
     31980 TIP3     4877     TIP3     H1       HT       0.417000       1.00800           0
     31981 TIP3     4877     TIP3     H2       HT       0.417000       1.00800           0
     31982 TIP3     4878     TIP3     OH2      OT      -0.834000       15.9994           0
     31983 TIP3     4878     TIP3     H1       HT       0.417000       1.00800           0
     31984 TIP3     4878     TIP3     H2       HT       0.417000       1.00800           0
     31985 TIP3     4879     TIP3     OH2      OT      -0.834000       15.9994           0
     31986 TIP3     4879     TIP3     H1       HT       0.417000       1.00800           0
     31987 TIP3     4879     TIP3     H2       HT       0.417000       1.00800           0
     31988 TIP3     4880     TIP3     OH2      OT      -0.834000       15.9994           0
     31989 TIP3     4880     TIP3     H1       HT       0.417000       1.00800           0
     31990 TIP3     4880     TIP3     H2       HT       0.417000       1.00800           0
     31991 TIP3     4881     TIP3     OH2      OT      -0.834000       15.9994           0
     31992 TIP3     4881     TIP3     H1       HT       0.417000       1.00800           0
     31993 TIP3     4881     TIP3     H2       HT       0.417000       1.00800           0
     31994 TIP3     4882     TIP3     OH2      OT      -0.834000       15.9994           0
     31995 TIP3     4882     TIP3     H1       HT       0.417000       1.00800           0
     31996 TIP3     4882     TIP3     H2       HT       0.417000       1.00800           0
     31997 TIP3     4883     TIP3     OH2      OT      -0.834000       15.9994           0
     31998 TIP3     4883     TIP3     H1       HT       0.417000       1.00800           0
     31999 TIP3     4883     TIP3     H2       HT       0.417000       1.00800           0
     32000 TIP3     4884     TIP3     OH2      OT      -0.834000       15.9994           0
     32001 TIP3     4884     TIP3     H1       HT       0.417000       1.00800           0
     32002 TIP3     4884     TIP3     H2       HT       0.417000       1.00800           0
     32003 TIP3     4885     TIP3     OH2      OT      -0.834000       15.9994           0
     32004 TIP3     4885     TIP3     H1       HT       0.417000       1.00800           0
     32005 TIP3     4885     TIP3     H2       HT       0.417000       1.00800           0
     32006 TIP3     4886     TIP3     OH2      OT      -0.834000       15.9994           0
     32007 TIP3     4886     TIP3     H1       HT       0.417000       1.00800           0
     32008 TIP3     4886     TIP3     H2       HT       0.417000       1.00800           0
     32009 TIP3     4887     TIP3     OH2      OT      -0.834000       15.9994           0
     32010 TIP3     4887     TIP3     H1       HT       0.417000       1.00800           0
     32011 TIP3     4887     TIP3     H2       HT       0.417000       1.00800           0
     32012 TIP3     4888     TIP3     OH2      OT      -0.834000       15.9994           0
     32013 TIP3     4888     TIP3     H1       HT       0.417000       1.00800           0
     32014 TIP3     4888     TIP3     H2       HT       0.417000       1.00800           0
     32015 TIP3     4889     TIP3     OH2      OT      -0.834000       15.9994           0
     32016 TIP3     4889     TIP3     H1       HT       0.417000       1.00800           0
     32017 TIP3     4889     TIP3     H2       HT       0.417000       1.00800           0
     32018 TIP3     4890     TIP3     OH2      OT      -0.834000       15.9994           0
     32019 TIP3     4890     TIP3     H1       HT       0.417000       1.00800           0
     32020 TIP3     4890     TIP3     H2       HT       0.417000       1.00800           0
     32021 TIP3     4891     TIP3     OH2      OT      -0.834000       15.9994           0
     32022 TIP3     4891     TIP3     H1       HT       0.417000       1.00800           0
     32023 TIP3     4891     TIP3     H2       HT       0.417000       1.00800           0
     32024 TIP3     4892     TIP3     OH2      OT      -0.834000       15.9994           0
     32025 TIP3     4892     TIP3     H1       HT       0.417000       1.00800           0
     32026 TIP3     4892     TIP3     H2       HT       0.417000       1.00800           0
     32027 TIP3     4893     TIP3     OH2      OT      -0.834000       15.9994           0
     32028 TIP3     4893     TIP3     H1       HT       0.417000       1.00800           0
     32029 TIP3     4893     TIP3     H2       HT       0.417000       1.00800           0
     32030 TIP3     4894     TIP3     OH2      OT      -0.834000       15.9994           0
     32031 TIP3     4894     TIP3     H1       HT       0.417000       1.00800           0
     32032 TIP3     4894     TIP3     H2       HT       0.417000       1.00800           0
     32033 TIP3     4895     TIP3     OH2      OT      -0.834000       15.9994           0
     32034 TIP3     4895     TIP3     H1       HT       0.417000       1.00800           0
     32035 TIP3     4895     TIP3     H2       HT       0.417000       1.00800           0
     32036 TIP3     4896     TIP3     OH2      OT      -0.834000       15.9994           0
     32037 TIP3     4896     TIP3     H1       HT       0.417000       1.00800           0
     32038 TIP3     4896     TIP3     H2       HT       0.417000       1.00800           0
     32039 TIP3     4897     TIP3     OH2      OT      -0.834000       15.9994           0
     32040 TIP3     4897     TIP3     H1       HT       0.417000       1.00800           0
     32041 TIP3     4897     TIP3     H2       HT       0.417000       1.00800           0
     32042 TIP3     4898     TIP3     OH2      OT      -0.834000       15.9994           0
     32043 TIP3     4898     TIP3     H1       HT       0.417000       1.00800           0
     32044 TIP3     4898     TIP3     H2       HT       0.417000       1.00800           0
     32045 TIP3     4899     TIP3     OH2      OT      -0.834000       15.9994           0
     32046 TIP3     4899     TIP3     H1       HT       0.417000       1.00800           0
     32047 TIP3     4899     TIP3     H2       HT       0.417000       1.00800           0
     32048 TIP3     4900     TIP3     OH2      OT      -0.834000       15.9994           0
     32049 TIP3     4900     TIP3     H1       HT       0.417000       1.00800           0
     32050 TIP3     4900     TIP3     H2       HT       0.417000       1.00800           0
     32051 TIP3     4901     TIP3     OH2      OT      -0.834000       15.9994           0
     32052 TIP3     4901     TIP3     H1       HT       0.417000       1.00800           0
     32053 TIP3     4901     TIP3     H2       HT       0.417000       1.00800           0
     32054 TIP3     4902     TIP3     OH2      OT      -0.834000       15.9994           0
     32055 TIP3     4902     TIP3     H1       HT       0.417000       1.00800           0
     32056 TIP3     4902     TIP3     H2       HT       0.417000       1.00800           0
     32057 TIP3     4903     TIP3     OH2      OT      -0.834000       15.9994           0
     32058 TIP3     4903     TIP3     H1       HT       0.417000       1.00800           0
     32059 TIP3     4903     TIP3     H2       HT       0.417000       1.00800           0
     32060 TIP3     4904     TIP3     OH2      OT      -0.834000       15.9994           0
     32061 TIP3     4904     TIP3     H1       HT       0.417000       1.00800           0
     32062 TIP3     4904     TIP3     H2       HT       0.417000       1.00800           0
     32063 TIP3     4905     TIP3     OH2      OT      -0.834000       15.9994           0
     32064 TIP3     4905     TIP3     H1       HT       0.417000       1.00800           0
     32065 TIP3     4905     TIP3     H2       HT       0.417000       1.00800           0
     32066 TIP3     4906     TIP3     OH2      OT      -0.834000       15.9994           0
     32067 TIP3     4906     TIP3     H1       HT       0.417000       1.00800           0
     32068 TIP3     4906     TIP3     H2       HT       0.417000       1.00800           0
     32069 TIP3     4907     TIP3     OH2      OT      -0.834000       15.9994           0
     32070 TIP3     4907     TIP3     H1       HT       0.417000       1.00800           0
     32071 TIP3     4907     TIP3     H2       HT       0.417000       1.00800           0
     32072 TIP3     4908     TIP3     OH2      OT      -0.834000       15.9994           0
     32073 TIP3     4908     TIP3     H1       HT       0.417000       1.00800           0
     32074 TIP3     4908     TIP3     H2       HT       0.417000       1.00800           0
     32075 TIP3     4909     TIP3     OH2      OT      -0.834000       15.9994           0
     32076 TIP3     4909     TIP3     H1       HT       0.417000       1.00800           0
     32077 TIP3     4909     TIP3     H2       HT       0.417000       1.00800           0
     32078 TIP3     4910     TIP3     OH2      OT      -0.834000       15.9994           0
     32079 TIP3     4910     TIP3     H1       HT       0.417000       1.00800           0
     32080 TIP3     4910     TIP3     H2       HT       0.417000       1.00800           0
     32081 TIP3     4911     TIP3     OH2      OT      -0.834000       15.9994           0
     32082 TIP3     4911     TIP3     H1       HT       0.417000       1.00800           0
     32083 TIP3     4911     TIP3     H2       HT       0.417000       1.00800           0
     32084 TIP3     4912     TIP3     OH2      OT      -0.834000       15.9994           0
     32085 TIP3     4912     TIP3     H1       HT       0.417000       1.00800           0
     32086 TIP3     4912     TIP3     H2       HT       0.417000       1.00800           0
     32087 TIP3     4913     TIP3     OH2      OT      -0.834000       15.9994           0
     32088 TIP3     4913     TIP3     H1       HT       0.417000       1.00800           0
     32089 TIP3     4913     TIP3     H2       HT       0.417000       1.00800           0
     32090 TIP3     4914     TIP3     OH2      OT      -0.834000       15.9994           0
     32091 TIP3     4914     TIP3     H1       HT       0.417000       1.00800           0
     32092 TIP3     4914     TIP3     H2       HT       0.417000       1.00800           0
     32093 TIP3     4915     TIP3     OH2      OT      -0.834000       15.9994           0
     32094 TIP3     4915     TIP3     H1       HT       0.417000       1.00800           0
     32095 TIP3     4915     TIP3     H2       HT       0.417000       1.00800           0
     32096 TIP3     4916     TIP3     OH2      OT      -0.834000       15.9994           0
     32097 TIP3     4916     TIP3     H1       HT       0.417000       1.00800           0
     32098 TIP3     4916     TIP3     H2       HT       0.417000       1.00800           0
     32099 TIP3     4917     TIP3     OH2      OT      -0.834000       15.9994           0
     32100 TIP3     4917     TIP3     H1       HT       0.417000       1.00800           0
     32101 TIP3     4917     TIP3     H2       HT       0.417000       1.00800           0
     32102 TIP3     4918     TIP3     OH2      OT      -0.834000       15.9994           0
     32103 TIP3     4918     TIP3     H1       HT       0.417000       1.00800           0
     32104 TIP3     4918     TIP3     H2       HT       0.417000       1.00800           0
     32105 TIP3     4919     TIP3     OH2      OT      -0.834000       15.9994           0
     32106 TIP3     4919     TIP3     H1       HT       0.417000       1.00800           0
     32107 TIP3     4919     TIP3     H2       HT       0.417000       1.00800           0
     32108 TIP3     4920     TIP3     OH2      OT      -0.834000       15.9994           0
     32109 TIP3     4920     TIP3     H1       HT       0.417000       1.00800           0
     32110 TIP3     4920     TIP3     H2       HT       0.417000       1.00800           0
     32111 TIP3     4921     TIP3     OH2      OT      -0.834000       15.9994           0
     32112 TIP3     4921     TIP3     H1       HT       0.417000       1.00800           0
     32113 TIP3     4921     TIP3     H2       HT       0.417000       1.00800           0
     32114 TIP3     4922     TIP3     OH2      OT      -0.834000       15.9994           0
     32115 TIP3     4922     TIP3     H1       HT       0.417000       1.00800           0
     32116 TIP3     4922     TIP3     H2       HT       0.417000       1.00800           0
     32117 TIP3     4923     TIP3     OH2      OT      -0.834000       15.9994           0
     32118 TIP3     4923     TIP3     H1       HT       0.417000       1.00800           0
     32119 TIP3     4923     TIP3     H2       HT       0.417000       1.00800           0
     32120 TIP3     4924     TIP3     OH2      OT      -0.834000       15.9994           0
     32121 TIP3     4924     TIP3     H1       HT       0.417000       1.00800           0
     32122 TIP3     4924     TIP3     H2       HT       0.417000       1.00800           0
     32123 TIP3     4925     TIP3     OH2      OT      -0.834000       15.9994           0
     32124 TIP3     4925     TIP3     H1       HT       0.417000       1.00800           0
     32125 TIP3     4925     TIP3     H2       HT       0.417000       1.00800           0
     32126 TIP3     4926     TIP3     OH2      OT      -0.834000       15.9994           0
     32127 TIP3     4926     TIP3     H1       HT       0.417000       1.00800           0
     32128 TIP3     4926     TIP3     H2       HT       0.417000       1.00800           0
     32129 TIP3     4927     TIP3     OH2      OT      -0.834000       15.9994           0
     32130 TIP3     4927     TIP3     H1       HT       0.417000       1.00800           0
     32131 TIP3     4927     TIP3     H2       HT       0.417000       1.00800           0
     32132 TIP3     4928     TIP3     OH2      OT      -0.834000       15.9994           0
     32133 TIP3     4928     TIP3     H1       HT       0.417000       1.00800           0
     32134 TIP3     4928     TIP3     H2       HT       0.417000       1.00800           0
     32135 TIP3     4929     TIP3     OH2      OT      -0.834000       15.9994           0
     32136 TIP3     4929     TIP3     H1       HT       0.417000       1.00800           0
     32137 TIP3     4929     TIP3     H2       HT       0.417000       1.00800           0
     32138 TIP3     4930     TIP3     OH2      OT      -0.834000       15.9994           0
     32139 TIP3     4930     TIP3     H1       HT       0.417000       1.00800           0
     32140 TIP3     4930     TIP3     H2       HT       0.417000       1.00800           0
     32141 TIP3     4931     TIP3     OH2      OT      -0.834000       15.9994           0
     32142 TIP3     4931     TIP3     H1       HT       0.417000       1.00800           0
     32143 TIP3     4931     TIP3     H2       HT       0.417000       1.00800           0
     32144 TIP3     4932     TIP3     OH2      OT      -0.834000       15.9994           0
     32145 TIP3     4932     TIP3     H1       HT       0.417000       1.00800           0
     32146 TIP3     4932     TIP3     H2       HT       0.417000       1.00800           0
     32147 TIP3     4933     TIP3     OH2      OT      -0.834000       15.9994           0
     32148 TIP3     4933     TIP3     H1       HT       0.417000       1.00800           0
     32149 TIP3     4933     TIP3     H2       HT       0.417000       1.00800           0
     32150 TIP3     4934     TIP3     OH2      OT      -0.834000       15.9994           0
     32151 TIP3     4934     TIP3     H1       HT       0.417000       1.00800           0
     32152 TIP3     4934     TIP3     H2       HT       0.417000       1.00800           0
     32153 TIP3     4935     TIP3     OH2      OT      -0.834000       15.9994           0
     32154 TIP3     4935     TIP3     H1       HT       0.417000       1.00800           0
     32155 TIP3     4935     TIP3     H2       HT       0.417000       1.00800           0
     32156 TIP3     4936     TIP3     OH2      OT      -0.834000       15.9994           0
     32157 TIP3     4936     TIP3     H1       HT       0.417000       1.00800           0
     32158 TIP3     4936     TIP3     H2       HT       0.417000       1.00800           0
     32159 TIP3     4937     TIP3     OH2      OT      -0.834000       15.9994           0
     32160 TIP3     4937     TIP3     H1       HT       0.417000       1.00800           0
     32161 TIP3     4937     TIP3     H2       HT       0.417000       1.00800           0
     32162 TIP3     4938     TIP3     OH2      OT      -0.834000       15.9994           0
     32163 TIP3     4938     TIP3     H1       HT       0.417000       1.00800           0
     32164 TIP3     4938     TIP3     H2       HT       0.417000       1.00800           0
     32165 TIP3     4939     TIP3     OH2      OT      -0.834000       15.9994           0
     32166 TIP3     4939     TIP3     H1       HT       0.417000       1.00800           0
     32167 TIP3     4939     TIP3     H2       HT       0.417000       1.00800           0
     32168 TIP3     4940     TIP3     OH2      OT      -0.834000       15.9994           0
     32169 TIP3     4940     TIP3     H1       HT       0.417000       1.00800           0
     32170 TIP3     4940     TIP3     H2       HT       0.417000       1.00800           0
     32171 TIP3     4941     TIP3     OH2      OT      -0.834000       15.9994           0
     32172 TIP3     4941     TIP3     H1       HT       0.417000       1.00800           0
     32173 TIP3     4941     TIP3     H2       HT       0.417000       1.00800           0
     32174 TIP3     4942     TIP3     OH2      OT      -0.834000       15.9994           0
     32175 TIP3     4942     TIP3     H1       HT       0.417000       1.00800           0
     32176 TIP3     4942     TIP3     H2       HT       0.417000       1.00800           0
     32177 TIP3     4943     TIP3     OH2      OT      -0.834000       15.9994           0
     32178 TIP3     4943     TIP3     H1       HT       0.417000       1.00800           0
     32179 TIP3     4943     TIP3     H2       HT       0.417000       1.00800           0
     32180 TIP3     4944     TIP3     OH2      OT      -0.834000       15.9994           0
     32181 TIP3     4944     TIP3     H1       HT       0.417000       1.00800           0
     32182 TIP3     4944     TIP3     H2       HT       0.417000       1.00800           0
     32183 TIP3     4945     TIP3     OH2      OT      -0.834000       15.9994           0
     32184 TIP3     4945     TIP3     H1       HT       0.417000       1.00800           0
     32185 TIP3     4945     TIP3     H2       HT       0.417000       1.00800           0
     32186 TIP3     4946     TIP3     OH2      OT      -0.834000       15.9994           0
     32187 TIP3     4946     TIP3     H1       HT       0.417000       1.00800           0
     32188 TIP3     4946     TIP3     H2       HT       0.417000       1.00800           0
     32189 TIP3     4947     TIP3     OH2      OT      -0.834000       15.9994           0
     32190 TIP3     4947     TIP3     H1       HT       0.417000       1.00800           0
     32191 TIP3     4947     TIP3     H2       HT       0.417000       1.00800           0
     32192 TIP3     4948     TIP3     OH2      OT      -0.834000       15.9994           0
     32193 TIP3     4948     TIP3     H1       HT       0.417000       1.00800           0
     32194 TIP3     4948     TIP3     H2       HT       0.417000       1.00800           0
     32195 TIP3     4949     TIP3     OH2      OT      -0.834000       15.9994           0
     32196 TIP3     4949     TIP3     H1       HT       0.417000       1.00800           0
     32197 TIP3     4949     TIP3     H2       HT       0.417000       1.00800           0
     32198 TIP3     4950     TIP3     OH2      OT      -0.834000       15.9994           0
     32199 TIP3     4950     TIP3     H1       HT       0.417000       1.00800           0
     32200 TIP3     4950     TIP3     H2       HT       0.417000       1.00800           0
     32201 TIP3     4951     TIP3     OH2      OT      -0.834000       15.9994           0
     32202 TIP3     4951     TIP3     H1       HT       0.417000       1.00800           0
     32203 TIP3     4951     TIP3     H2       HT       0.417000       1.00800           0
     32204 TIP3     4952     TIP3     OH2      OT      -0.834000       15.9994           0
     32205 TIP3     4952     TIP3     H1       HT       0.417000       1.00800           0
     32206 TIP3     4952     TIP3     H2       HT       0.417000       1.00800           0
     32207 TIP3     4953     TIP3     OH2      OT      -0.834000       15.9994           0
     32208 TIP3     4953     TIP3     H1       HT       0.417000       1.00800           0
     32209 TIP3     4953     TIP3     H2       HT       0.417000       1.00800           0
     32210 TIP3     4954     TIP3     OH2      OT      -0.834000       15.9994           0
     32211 TIP3     4954     TIP3     H1       HT       0.417000       1.00800           0
     32212 TIP3     4954     TIP3     H2       HT       0.417000       1.00800           0
     32213 TIP3     4955     TIP3     OH2      OT      -0.834000       15.9994           0
     32214 TIP3     4955     TIP3     H1       HT       0.417000       1.00800           0
     32215 TIP3     4955     TIP3     H2       HT       0.417000       1.00800           0
     32216 TIP3     4956     TIP3     OH2      OT      -0.834000       15.9994           0
     32217 TIP3     4956     TIP3     H1       HT       0.417000       1.00800           0
     32218 TIP3     4956     TIP3     H2       HT       0.417000       1.00800           0
     32219 TIP3     4957     TIP3     OH2      OT      -0.834000       15.9994           0
     32220 TIP3     4957     TIP3     H1       HT       0.417000       1.00800           0
     32221 TIP3     4957     TIP3     H2       HT       0.417000       1.00800           0
     32222 TIP3     4958     TIP3     OH2      OT      -0.834000       15.9994           0
     32223 TIP3     4958     TIP3     H1       HT       0.417000       1.00800           0
     32224 TIP3     4958     TIP3     H2       HT       0.417000       1.00800           0
     32225 TIP3     4959     TIP3     OH2      OT      -0.834000       15.9994           0
     32226 TIP3     4959     TIP3     H1       HT       0.417000       1.00800           0
     32227 TIP3     4959     TIP3     H2       HT       0.417000       1.00800           0
     32228 TIP3     4960     TIP3     OH2      OT      -0.834000       15.9994           0
     32229 TIP3     4960     TIP3     H1       HT       0.417000       1.00800           0
     32230 TIP3     4960     TIP3     H2       HT       0.417000       1.00800           0
     32231 TIP3     4961     TIP3     OH2      OT      -0.834000       15.9994           0
     32232 TIP3     4961     TIP3     H1       HT       0.417000       1.00800           0
     32233 TIP3     4961     TIP3     H2       HT       0.417000       1.00800           0
     32234 TIP3     4962     TIP3     OH2      OT      -0.834000       15.9994           0
     32235 TIP3     4962     TIP3     H1       HT       0.417000       1.00800           0
     32236 TIP3     4962     TIP3     H2       HT       0.417000       1.00800           0
     32237 TIP3     4963     TIP3     OH2      OT      -0.834000       15.9994           0
     32238 TIP3     4963     TIP3     H1       HT       0.417000       1.00800           0
     32239 TIP3     4963     TIP3     H2       HT       0.417000       1.00800           0
     32240 TIP3     4964     TIP3     OH2      OT      -0.834000       15.9994           0
     32241 TIP3     4964     TIP3     H1       HT       0.417000       1.00800           0
     32242 TIP3     4964     TIP3     H2       HT       0.417000       1.00800           0
     32243 TIP3     4965     TIP3     OH2      OT      -0.834000       15.9994           0
     32244 TIP3     4965     TIP3     H1       HT       0.417000       1.00800           0
     32245 TIP3     4965     TIP3     H2       HT       0.417000       1.00800           0
     32246 TIP3     4966     TIP3     OH2      OT      -0.834000       15.9994           0
     32247 TIP3     4966     TIP3     H1       HT       0.417000       1.00800           0
     32248 TIP3     4966     TIP3     H2       HT       0.417000       1.00800           0
     32249 TIP3     4967     TIP3     OH2      OT      -0.834000       15.9994           0
     32250 TIP3     4967     TIP3     H1       HT       0.417000       1.00800           0
     32251 TIP3     4967     TIP3     H2       HT       0.417000       1.00800           0
     32252 TIP3     4968     TIP3     OH2      OT      -0.834000       15.9994           0
     32253 TIP3     4968     TIP3     H1       HT       0.417000       1.00800           0
     32254 TIP3     4968     TIP3     H2       HT       0.417000       1.00800           0
     32255 TIP3     4969     TIP3     OH2      OT      -0.834000       15.9994           0
     32256 TIP3     4969     TIP3     H1       HT       0.417000       1.00800           0
     32257 TIP3     4969     TIP3     H2       HT       0.417000       1.00800           0
     32258 TIP3     4970     TIP3     OH2      OT      -0.834000       15.9994           0
     32259 TIP3     4970     TIP3     H1       HT       0.417000       1.00800           0
     32260 TIP3     4970     TIP3     H2       HT       0.417000       1.00800           0
     32261 TIP3     4971     TIP3     OH2      OT      -0.834000       15.9994           0
     32262 TIP3     4971     TIP3     H1       HT       0.417000       1.00800           0
     32263 TIP3     4971     TIP3     H2       HT       0.417000       1.00800           0
     32264 TIP3     4972     TIP3     OH2      OT      -0.834000       15.9994           0
     32265 TIP3     4972     TIP3     H1       HT       0.417000       1.00800           0
     32266 TIP3     4972     TIP3     H2       HT       0.417000       1.00800           0
     32267 TIP3     4973     TIP3     OH2      OT      -0.834000       15.9994           0
     32268 TIP3     4973     TIP3     H1       HT       0.417000       1.00800           0
     32269 TIP3     4973     TIP3     H2       HT       0.417000       1.00800           0
     32270 TIP3     4974     TIP3     OH2      OT      -0.834000       15.9994           0
     32271 TIP3     4974     TIP3     H1       HT       0.417000       1.00800           0
     32272 TIP3     4974     TIP3     H2       HT       0.417000       1.00800           0
     32273 TIP3     4975     TIP3     OH2      OT      -0.834000       15.9994           0
     32274 TIP3     4975     TIP3     H1       HT       0.417000       1.00800           0
     32275 TIP3     4975     TIP3     H2       HT       0.417000       1.00800           0
     32276 TIP3     4976     TIP3     OH2      OT      -0.834000       15.9994           0
     32277 TIP3     4976     TIP3     H1       HT       0.417000       1.00800           0
     32278 TIP3     4976     TIP3     H2       HT       0.417000       1.00800           0
     32279 TIP3     4977     TIP3     OH2      OT      -0.834000       15.9994           0
     32280 TIP3     4977     TIP3     H1       HT       0.417000       1.00800           0
     32281 TIP3     4977     TIP3     H2       HT       0.417000       1.00800           0
     32282 TIP3     4978     TIP3     OH2      OT      -0.834000       15.9994           0
     32283 TIP3     4978     TIP3     H1       HT       0.417000       1.00800           0
     32284 TIP3     4978     TIP3     H2       HT       0.417000       1.00800           0
     32285 TIP3     4979     TIP3     OH2      OT      -0.834000       15.9994           0
     32286 TIP3     4979     TIP3     H1       HT       0.417000       1.00800           0
     32287 TIP3     4979     TIP3     H2       HT       0.417000       1.00800           0
     32288 TIP3     4980     TIP3     OH2      OT      -0.834000       15.9994           0
     32289 TIP3     4980     TIP3     H1       HT       0.417000       1.00800           0
     32290 TIP3     4980     TIP3     H2       HT       0.417000       1.00800           0
     32291 TIP3     4981     TIP3     OH2      OT      -0.834000       15.9994           0
     32292 TIP3     4981     TIP3     H1       HT       0.417000       1.00800           0
     32293 TIP3     4981     TIP3     H2       HT       0.417000       1.00800           0
     32294 TIP3     4982     TIP3     OH2      OT      -0.834000       15.9994           0
     32295 TIP3     4982     TIP3     H1       HT       0.417000       1.00800           0
     32296 TIP3     4982     TIP3     H2       HT       0.417000       1.00800           0
     32297 TIP3     4983     TIP3     OH2      OT      -0.834000       15.9994           0
     32298 TIP3     4983     TIP3     H1       HT       0.417000       1.00800           0
     32299 TIP3     4983     TIP3     H2       HT       0.417000       1.00800           0
     32300 TIP3     4984     TIP3     OH2      OT      -0.834000       15.9994           0
     32301 TIP3     4984     TIP3     H1       HT       0.417000       1.00800           0
     32302 TIP3     4984     TIP3     H2       HT       0.417000       1.00800           0
     32303 TIP3     4985     TIP3     OH2      OT      -0.834000       15.9994           0
     32304 TIP3     4985     TIP3     H1       HT       0.417000       1.00800           0
     32305 TIP3     4985     TIP3     H2       HT       0.417000       1.00800           0
     32306 TIP3     4986     TIP3     OH2      OT      -0.834000       15.9994           0
     32307 TIP3     4986     TIP3     H1       HT       0.417000       1.00800           0
     32308 TIP3     4986     TIP3     H2       HT       0.417000       1.00800           0
     32309 TIP3     4987     TIP3     OH2      OT      -0.834000       15.9994           0
     32310 TIP3     4987     TIP3     H1       HT       0.417000       1.00800           0
     32311 TIP3     4987     TIP3     H2       HT       0.417000       1.00800           0
     32312 TIP3     4988     TIP3     OH2      OT      -0.834000       15.9994           0
     32313 TIP3     4988     TIP3     H1       HT       0.417000       1.00800           0
     32314 TIP3     4988     TIP3     H2       HT       0.417000       1.00800           0
     32315 TIP3     4989     TIP3     OH2      OT      -0.834000       15.9994           0
     32316 TIP3     4989     TIP3     H1       HT       0.417000       1.00800           0
     32317 TIP3     4989     TIP3     H2       HT       0.417000       1.00800           0
     32318 TIP3     4990     TIP3     OH2      OT      -0.834000       15.9994           0
     32319 TIP3     4990     TIP3     H1       HT       0.417000       1.00800           0
     32320 TIP3     4990     TIP3     H2       HT       0.417000       1.00800           0
     32321 TIP3     4991     TIP3     OH2      OT      -0.834000       15.9994           0
     32322 TIP3     4991     TIP3     H1       HT       0.417000       1.00800           0
     32323 TIP3     4991     TIP3     H2       HT       0.417000       1.00800           0
     32324 TIP3     4992     TIP3     OH2      OT      -0.834000       15.9994           0
     32325 TIP3     4992     TIP3     H1       HT       0.417000       1.00800           0
     32326 TIP3     4992     TIP3     H2       HT       0.417000       1.00800           0
     32327 TIP3     4993     TIP3     OH2      OT      -0.834000       15.9994           0
     32328 TIP3     4993     TIP3     H1       HT       0.417000       1.00800           0
     32329 TIP3     4993     TIP3     H2       HT       0.417000       1.00800           0
     32330 TIP3     4994     TIP3     OH2      OT      -0.834000       15.9994           0
     32331 TIP3     4994     TIP3     H1       HT       0.417000       1.00800           0
     32332 TIP3     4994     TIP3     H2       HT       0.417000       1.00800           0
     32333 TIP3     4995     TIP3     OH2      OT      -0.834000       15.9994           0
     32334 TIP3     4995     TIP3     H1       HT       0.417000       1.00800           0
     32335 TIP3     4995     TIP3     H2       HT       0.417000       1.00800           0
     32336 TIP3     4996     TIP3     OH2      OT      -0.834000       15.9994           0
     32337 TIP3     4996     TIP3     H1       HT       0.417000       1.00800           0
     32338 TIP3     4996     TIP3     H2       HT       0.417000       1.00800           0
     32339 TIP3     4997     TIP3     OH2      OT      -0.834000       15.9994           0
     32340 TIP3     4997     TIP3     H1       HT       0.417000       1.00800           0
     32341 TIP3     4997     TIP3     H2       HT       0.417000       1.00800           0
     32342 TIP3     4998     TIP3     OH2      OT      -0.834000       15.9994           0
     32343 TIP3     4998     TIP3     H1       HT       0.417000       1.00800           0
     32344 TIP3     4998     TIP3     H2       HT       0.417000       1.00800           0
     32345 TIP3     4999     TIP3     OH2      OT      -0.834000       15.9994           0
     32346 TIP3     4999     TIP3     H1       HT       0.417000       1.00800           0
     32347 TIP3     4999     TIP3     H2       HT       0.417000       1.00800           0
     32348 TIP3     5000     TIP3     OH2      OT      -0.834000       15.9994           0
     32349 TIP3     5000     TIP3     H1       HT       0.417000       1.00800           0
     32350 TIP3     5000     TIP3     H2       HT       0.417000       1.00800           0
     32351 TIP3     5001     TIP3     OH2      OT      -0.834000       15.9994           0
     32352 TIP3     5001     TIP3     H1       HT       0.417000       1.00800           0
     32353 TIP3     5001     TIP3     H2       HT       0.417000       1.00800           0
     32354 TIP3     5002     TIP3     OH2      OT      -0.834000       15.9994           0
     32355 TIP3     5002     TIP3     H1       HT       0.417000       1.00800           0
     32356 TIP3     5002     TIP3     H2       HT       0.417000       1.00800           0
     32357 TIP3     5003     TIP3     OH2      OT      -0.834000       15.9994           0
     32358 TIP3     5003     TIP3     H1       HT       0.417000       1.00800           0
     32359 TIP3     5003     TIP3     H2       HT       0.417000       1.00800           0
     32360 TIP3     5004     TIP3     OH2      OT      -0.834000       15.9994           0
     32361 TIP3     5004     TIP3     H1       HT       0.417000       1.00800           0
     32362 TIP3     5004     TIP3     H2       HT       0.417000       1.00800           0
     32363 TIP3     5005     TIP3     OH2      OT      -0.834000       15.9994           0
     32364 TIP3     5005     TIP3     H1       HT       0.417000       1.00800           0
     32365 TIP3     5005     TIP3     H2       HT       0.417000       1.00800           0
     32366 TIP3     5006     TIP3     OH2      OT      -0.834000       15.9994           0
     32367 TIP3     5006     TIP3     H1       HT       0.417000       1.00800           0
     32368 TIP3     5006     TIP3     H2       HT       0.417000       1.00800           0
     32369 TIP3     5007     TIP3     OH2      OT      -0.834000       15.9994           0
     32370 TIP3     5007     TIP3     H1       HT       0.417000       1.00800           0
     32371 TIP3     5007     TIP3     H2       HT       0.417000       1.00800           0
     32372 TIP3     5008     TIP3     OH2      OT      -0.834000       15.9994           0
     32373 TIP3     5008     TIP3     H1       HT       0.417000       1.00800           0
     32374 TIP3     5008     TIP3     H2       HT       0.417000       1.00800           0
     32375 TIP3     5009     TIP3     OH2      OT      -0.834000       15.9994           0
     32376 TIP3     5009     TIP3     H1       HT       0.417000       1.00800           0
     32377 TIP3     5009     TIP3     H2       HT       0.417000       1.00800           0
     32378 TIP3     5010     TIP3     OH2      OT      -0.834000       15.9994           0
     32379 TIP3     5010     TIP3     H1       HT       0.417000       1.00800           0
     32380 TIP3     5010     TIP3     H2       HT       0.417000       1.00800           0
     32381 TIP3     5011     TIP3     OH2      OT      -0.834000       15.9994           0
     32382 TIP3     5011     TIP3     H1       HT       0.417000       1.00800           0
     32383 TIP3     5011     TIP3     H2       HT       0.417000       1.00800           0
     32384 TIP3     5012     TIP3     OH2      OT      -0.834000       15.9994           0
     32385 TIP3     5012     TIP3     H1       HT       0.417000       1.00800           0
     32386 TIP3     5012     TIP3     H2       HT       0.417000       1.00800           0
     32387 TIP3     5013     TIP3     OH2      OT      -0.834000       15.9994           0
     32388 TIP3     5013     TIP3     H1       HT       0.417000       1.00800           0
     32389 TIP3     5013     TIP3     H2       HT       0.417000       1.00800           0
     32390 TIP3     5014     TIP3     OH2      OT      -0.834000       15.9994           0
     32391 TIP3     5014     TIP3     H1       HT       0.417000       1.00800           0
     32392 TIP3     5014     TIP3     H2       HT       0.417000       1.00800           0
     32393 TIP3     5015     TIP3     OH2      OT      -0.834000       15.9994           0
     32394 TIP3     5015     TIP3     H1       HT       0.417000       1.00800           0
     32395 TIP3     5015     TIP3     H2       HT       0.417000       1.00800           0
     32396 TIP3     5016     TIP3     OH2      OT      -0.834000       15.9994           0
     32397 TIP3     5016     TIP3     H1       HT       0.417000       1.00800           0
     32398 TIP3     5016     TIP3     H2       HT       0.417000       1.00800           0
     32399 TIP3     5017     TIP3     OH2      OT      -0.834000       15.9994           0
     32400 TIP3     5017     TIP3     H1       HT       0.417000       1.00800           0
     32401 TIP3     5017     TIP3     H2       HT       0.417000       1.00800           0
     32402 TIP3     5018     TIP3     OH2      OT      -0.834000       15.9994           0
     32403 TIP3     5018     TIP3     H1       HT       0.417000       1.00800           0
     32404 TIP3     5018     TIP3     H2       HT       0.417000       1.00800           0
     32405 TIP3     5019     TIP3     OH2      OT      -0.834000       15.9994           0
     32406 TIP3     5019     TIP3     H1       HT       0.417000       1.00800           0
     32407 TIP3     5019     TIP3     H2       HT       0.417000       1.00800           0
     32408 TIP3     5020     TIP3     OH2      OT      -0.834000       15.9994           0
     32409 TIP3     5020     TIP3     H1       HT       0.417000       1.00800           0
     32410 TIP3     5020     TIP3     H2       HT       0.417000       1.00800           0
     32411 TIP3     5021     TIP3     OH2      OT      -0.834000       15.9994           0
     32412 TIP3     5021     TIP3     H1       HT       0.417000       1.00800           0
     32413 TIP3     5021     TIP3     H2       HT       0.417000       1.00800           0
     32414 TIP3     5022     TIP3     OH2      OT      -0.834000       15.9994           0
     32415 TIP3     5022     TIP3     H1       HT       0.417000       1.00800           0
     32416 TIP3     5022     TIP3     H2       HT       0.417000       1.00800           0
     32417 TIP3     5023     TIP3     OH2      OT      -0.834000       15.9994           0
     32418 TIP3     5023     TIP3     H1       HT       0.417000       1.00800           0
     32419 TIP3     5023     TIP3     H2       HT       0.417000       1.00800           0
     32420 TIP3     5024     TIP3     OH2      OT      -0.834000       15.9994           0
     32421 TIP3     5024     TIP3     H1       HT       0.417000       1.00800           0
     32422 TIP3     5024     TIP3     H2       HT       0.417000       1.00800           0
     32423 TIP3     5025     TIP3     OH2      OT      -0.834000       15.9994           0
     32424 TIP3     5025     TIP3     H1       HT       0.417000       1.00800           0
     32425 TIP3     5025     TIP3     H2       HT       0.417000       1.00800           0
     32426 TIP3     5026     TIP3     OH2      OT      -0.834000       15.9994           0
     32427 TIP3     5026     TIP3     H1       HT       0.417000       1.00800           0
     32428 TIP3     5026     TIP3     H2       HT       0.417000       1.00800           0
     32429 TIP3     5027     TIP3     OH2      OT      -0.834000       15.9994           0
     32430 TIP3     5027     TIP3     H1       HT       0.417000       1.00800           0
     32431 TIP3     5027     TIP3     H2       HT       0.417000       1.00800           0
     32432 TIP3     5028     TIP3     OH2      OT      -0.834000       15.9994           0
     32433 TIP3     5028     TIP3     H1       HT       0.417000       1.00800           0
     32434 TIP3     5028     TIP3     H2       HT       0.417000       1.00800           0
     32435 TIP3     5029     TIP3     OH2      OT      -0.834000       15.9994           0
     32436 TIP3     5029     TIP3     H1       HT       0.417000       1.00800           0
     32437 TIP3     5029     TIP3     H2       HT       0.417000       1.00800           0
     32438 TIP3     5030     TIP3     OH2      OT      -0.834000       15.9994           0
     32439 TIP3     5030     TIP3     H1       HT       0.417000       1.00800           0
     32440 TIP3     5030     TIP3     H2       HT       0.417000       1.00800           0
     32441 TIP3     5031     TIP3     OH2      OT      -0.834000       15.9994           0
     32442 TIP3     5031     TIP3     H1       HT       0.417000       1.00800           0
     32443 TIP3     5031     TIP3     H2       HT       0.417000       1.00800           0
     32444 TIP3     5032     TIP3     OH2      OT      -0.834000       15.9994           0
     32445 TIP3     5032     TIP3     H1       HT       0.417000       1.00800           0
     32446 TIP3     5032     TIP3     H2       HT       0.417000       1.00800           0
     32447 TIP3     5033     TIP3     OH2      OT      -0.834000       15.9994           0
     32448 TIP3     5033     TIP3     H1       HT       0.417000       1.00800           0
     32449 TIP3     5033     TIP3     H2       HT       0.417000       1.00800           0
     32450 TIP3     5034     TIP3     OH2      OT      -0.834000       15.9994           0
     32451 TIP3     5034     TIP3     H1       HT       0.417000       1.00800           0
     32452 TIP3     5034     TIP3     H2       HT       0.417000       1.00800           0
     32453 TIP3     5035     TIP3     OH2      OT      -0.834000       15.9994           0
     32454 TIP3     5035     TIP3     H1       HT       0.417000       1.00800           0
     32455 TIP3     5035     TIP3     H2       HT       0.417000       1.00800           0
     32456 TIP3     5036     TIP3     OH2      OT      -0.834000       15.9994           0
     32457 TIP3     5036     TIP3     H1       HT       0.417000       1.00800           0
     32458 TIP3     5036     TIP3     H2       HT       0.417000       1.00800           0
     32459 TIP3     5037     TIP3     OH2      OT      -0.834000       15.9994           0
     32460 TIP3     5037     TIP3     H1       HT       0.417000       1.00800           0
     32461 TIP3     5037     TIP3     H2       HT       0.417000       1.00800           0
     32462 TIP3     5038     TIP3     OH2      OT      -0.834000       15.9994           0
     32463 TIP3     5038     TIP3     H1       HT       0.417000       1.00800           0
     32464 TIP3     5038     TIP3     H2       HT       0.417000       1.00800           0
     32465 TIP3     5039     TIP3     OH2      OT      -0.834000       15.9994           0
     32466 TIP3     5039     TIP3     H1       HT       0.417000       1.00800           0
     32467 TIP3     5039     TIP3     H2       HT       0.417000       1.00800           0
     32468 TIP3     5040     TIP3     OH2      OT      -0.834000       15.9994           0
     32469 TIP3     5040     TIP3     H1       HT       0.417000       1.00800           0
     32470 TIP3     5040     TIP3     H2       HT       0.417000       1.00800           0
     32471 TIP3     5041     TIP3     OH2      OT      -0.834000       15.9994           0
     32472 TIP3     5041     TIP3     H1       HT       0.417000       1.00800           0
     32473 TIP3     5041     TIP3     H2       HT       0.417000       1.00800           0
     32474 TIP3     5042     TIP3     OH2      OT      -0.834000       15.9994           0
     32475 TIP3     5042     TIP3     H1       HT       0.417000       1.00800           0
     32476 TIP3     5042     TIP3     H2       HT       0.417000       1.00800           0
     32477 TIP3     5043     TIP3     OH2      OT      -0.834000       15.9994           0
     32478 TIP3     5043     TIP3     H1       HT       0.417000       1.00800           0
     32479 TIP3     5043     TIP3     H2       HT       0.417000       1.00800           0
     32480 TIP3     5044     TIP3     OH2      OT      -0.834000       15.9994           0
     32481 TIP3     5044     TIP3     H1       HT       0.417000       1.00800           0
     32482 TIP3     5044     TIP3     H2       HT       0.417000       1.00800           0
     32483 TIP3     5045     TIP3     OH2      OT      -0.834000       15.9994           0
     32484 TIP3     5045     TIP3     H1       HT       0.417000       1.00800           0
     32485 TIP3     5045     TIP3     H2       HT       0.417000       1.00800           0
     32486 TIP3     5046     TIP3     OH2      OT      -0.834000       15.9994           0
     32487 TIP3     5046     TIP3     H1       HT       0.417000       1.00800           0
     32488 TIP3     5046     TIP3     H2       HT       0.417000       1.00800           0
     32489 TIP3     5047     TIP3     OH2      OT      -0.834000       15.9994           0
     32490 TIP3     5047     TIP3     H1       HT       0.417000       1.00800           0
     32491 TIP3     5047     TIP3     H2       HT       0.417000       1.00800           0
     32492 TIP3     5048     TIP3     OH2      OT      -0.834000       15.9994           0
     32493 TIP3     5048     TIP3     H1       HT       0.417000       1.00800           0
     32494 TIP3     5048     TIP3     H2       HT       0.417000       1.00800           0
     32495 TIP3     5049     TIP3     OH2      OT      -0.834000       15.9994           0
     32496 TIP3     5049     TIP3     H1       HT       0.417000       1.00800           0
     32497 TIP3     5049     TIP3     H2       HT       0.417000       1.00800           0
     32498 TIP3     5050     TIP3     OH2      OT      -0.834000       15.9994           0
     32499 TIP3     5050     TIP3     H1       HT       0.417000       1.00800           0
     32500 TIP3     5050     TIP3     H2       HT       0.417000       1.00800           0
     32501 TIP3     5051     TIP3     OH2      OT      -0.834000       15.9994           0
     32502 TIP3     5051     TIP3     H1       HT       0.417000       1.00800           0
     32503 TIP3     5051     TIP3     H2       HT       0.417000       1.00800           0
     32504 TIP3     5052     TIP3     OH2      OT      -0.834000       15.9994           0
     32505 TIP3     5052     TIP3     H1       HT       0.417000       1.00800           0
     32506 TIP3     5052     TIP3     H2       HT       0.417000       1.00800           0
     32507 TIP3     5053     TIP3     OH2      OT      -0.834000       15.9994           0
     32508 TIP3     5053     TIP3     H1       HT       0.417000       1.00800           0
     32509 TIP3     5053     TIP3     H2       HT       0.417000       1.00800           0
     32510 TIP3     5054     TIP3     OH2      OT      -0.834000       15.9994           0
     32511 TIP3     5054     TIP3     H1       HT       0.417000       1.00800           0
     32512 TIP3     5054     TIP3     H2       HT       0.417000       1.00800           0
     32513 TIP3     5055     TIP3     OH2      OT      -0.834000       15.9994           0
     32514 TIP3     5055     TIP3     H1       HT       0.417000       1.00800           0
     32515 TIP3     5055     TIP3     H2       HT       0.417000       1.00800           0
     32516 TIP3     5056     TIP3     OH2      OT      -0.834000       15.9994           0
     32517 TIP3     5056     TIP3     H1       HT       0.417000       1.00800           0
     32518 TIP3     5056     TIP3     H2       HT       0.417000       1.00800           0
     32519 TIP3     5057     TIP3     OH2      OT      -0.834000       15.9994           0
     32520 TIP3     5057     TIP3     H1       HT       0.417000       1.00800           0
     32521 TIP3     5057     TIP3     H2       HT       0.417000       1.00800           0
     32522 TIP3     5058     TIP3     OH2      OT      -0.834000       15.9994           0
     32523 TIP3     5058     TIP3     H1       HT       0.417000       1.00800           0
     32524 TIP3     5058     TIP3     H2       HT       0.417000       1.00800           0
     32525 TIP3     5059     TIP3     OH2      OT      -0.834000       15.9994           0
     32526 TIP3     5059     TIP3     H1       HT       0.417000       1.00800           0
     32527 TIP3     5059     TIP3     H2       HT       0.417000       1.00800           0
     32528 TIP3     5060     TIP3     OH2      OT      -0.834000       15.9994           0
     32529 TIP3     5060     TIP3     H1       HT       0.417000       1.00800           0
     32530 TIP3     5060     TIP3     H2       HT       0.417000       1.00800           0
     32531 TIP3     5061     TIP3     OH2      OT      -0.834000       15.9994           0
     32532 TIP3     5061     TIP3     H1       HT       0.417000       1.00800           0
     32533 TIP3     5061     TIP3     H2       HT       0.417000       1.00800           0
     32534 TIP3     5062     TIP3     OH2      OT      -0.834000       15.9994           0
     32535 TIP3     5062     TIP3     H1       HT       0.417000       1.00800           0
     32536 TIP3     5062     TIP3     H2       HT       0.417000       1.00800           0
     32537 TIP3     5063     TIP3     OH2      OT      -0.834000       15.9994           0
     32538 TIP3     5063     TIP3     H1       HT       0.417000       1.00800           0
     32539 TIP3     5063     TIP3     H2       HT       0.417000       1.00800           0
     32540 TIP3     5064     TIP3     OH2      OT      -0.834000       15.9994           0
     32541 TIP3     5064     TIP3     H1       HT       0.417000       1.00800           0
     32542 TIP3     5064     TIP3     H2       HT       0.417000       1.00800           0
     32543 TIP3     5065     TIP3     OH2      OT      -0.834000       15.9994           0
     32544 TIP3     5065     TIP3     H1       HT       0.417000       1.00800           0
     32545 TIP3     5065     TIP3     H2       HT       0.417000       1.00800           0
     32546 TIP3     5066     TIP3     OH2      OT      -0.834000       15.9994           0
     32547 TIP3     5066     TIP3     H1       HT       0.417000       1.00800           0
     32548 TIP3     5066     TIP3     H2       HT       0.417000       1.00800           0
     32549 TIP3     5067     TIP3     OH2      OT      -0.834000       15.9994           0
     32550 TIP3     5067     TIP3     H1       HT       0.417000       1.00800           0
     32551 TIP3     5067     TIP3     H2       HT       0.417000       1.00800           0
     32552 TIP3     5068     TIP3     OH2      OT      -0.834000       15.9994           0
     32553 TIP3     5068     TIP3     H1       HT       0.417000       1.00800           0
     32554 TIP3     5068     TIP3     H2       HT       0.417000       1.00800           0
     32555 TIP3     5069     TIP3     OH2      OT      -0.834000       15.9994           0
     32556 TIP3     5069     TIP3     H1       HT       0.417000       1.00800           0
     32557 TIP3     5069     TIP3     H2       HT       0.417000       1.00800           0
     32558 TIP3     5070     TIP3     OH2      OT      -0.834000       15.9994           0
     32559 TIP3     5070     TIP3     H1       HT       0.417000       1.00800           0
     32560 TIP3     5070     TIP3     H2       HT       0.417000       1.00800           0
     32561 TIP3     5071     TIP3     OH2      OT      -0.834000       15.9994           0
     32562 TIP3     5071     TIP3     H1       HT       0.417000       1.00800           0
     32563 TIP3     5071     TIP3     H2       HT       0.417000       1.00800           0
     32564 TIP3     5072     TIP3     OH2      OT      -0.834000       15.9994           0
     32565 TIP3     5072     TIP3     H1       HT       0.417000       1.00800           0
     32566 TIP3     5072     TIP3     H2       HT       0.417000       1.00800           0
     32567 TIP3     5073     TIP3     OH2      OT      -0.834000       15.9994           0
     32568 TIP3     5073     TIP3     H1       HT       0.417000       1.00800           0
     32569 TIP3     5073     TIP3     H2       HT       0.417000       1.00800           0
     32570 TIP3     5074     TIP3     OH2      OT      -0.834000       15.9994           0
     32571 TIP3     5074     TIP3     H1       HT       0.417000       1.00800           0
     32572 TIP3     5074     TIP3     H2       HT       0.417000       1.00800           0
     32573 TIP3     5075     TIP3     OH2      OT      -0.834000       15.9994           0
     32574 TIP3     5075     TIP3     H1       HT       0.417000       1.00800           0
     32575 TIP3     5075     TIP3     H2       HT       0.417000       1.00800           0
     32576 TIP3     5076     TIP3     OH2      OT      -0.834000       15.9994           0
     32577 TIP3     5076     TIP3     H1       HT       0.417000       1.00800           0
     32578 TIP3     5076     TIP3     H2       HT       0.417000       1.00800           0
     32579 TIP3     5077     TIP3     OH2      OT      -0.834000       15.9994           0
     32580 TIP3     5077     TIP3     H1       HT       0.417000       1.00800           0
     32581 TIP3     5077     TIP3     H2       HT       0.417000       1.00800           0
     32582 TIP3     5078     TIP3     OH2      OT      -0.834000       15.9994           0
     32583 TIP3     5078     TIP3     H1       HT       0.417000       1.00800           0
     32584 TIP3     5078     TIP3     H2       HT       0.417000       1.00800           0
     32585 TIP3     5079     TIP3     OH2      OT      -0.834000       15.9994           0
     32586 TIP3     5079     TIP3     H1       HT       0.417000       1.00800           0
     32587 TIP3     5079     TIP3     H2       HT       0.417000       1.00800           0
     32588 TIP3     5080     TIP3     OH2      OT      -0.834000       15.9994           0
     32589 TIP3     5080     TIP3     H1       HT       0.417000       1.00800           0
     32590 TIP3     5080     TIP3     H2       HT       0.417000       1.00800           0
     32591 TIP3     5081     TIP3     OH2      OT      -0.834000       15.9994           0
     32592 TIP3     5081     TIP3     H1       HT       0.417000       1.00800           0
     32593 TIP3     5081     TIP3     H2       HT       0.417000       1.00800           0
     32594 TIP3     5082     TIP3     OH2      OT      -0.834000       15.9994           0
     32595 TIP3     5082     TIP3     H1       HT       0.417000       1.00800           0
     32596 TIP3     5082     TIP3     H2       HT       0.417000       1.00800           0
     32597 TIP3     5083     TIP3     OH2      OT      -0.834000       15.9994           0
     32598 TIP3     5083     TIP3     H1       HT       0.417000       1.00800           0
     32599 TIP3     5083     TIP3     H2       HT       0.417000       1.00800           0
     32600 TIP3     5084     TIP3     OH2      OT      -0.834000       15.9994           0
     32601 TIP3     5084     TIP3     H1       HT       0.417000       1.00800           0
     32602 TIP3     5084     TIP3     H2       HT       0.417000       1.00800           0
     32603 TIP3     5085     TIP3     OH2      OT      -0.834000       15.9994           0
     32604 TIP3     5085     TIP3     H1       HT       0.417000       1.00800           0
     32605 TIP3     5085     TIP3     H2       HT       0.417000       1.00800           0
     32606 TIP3     5086     TIP3     OH2      OT      -0.834000       15.9994           0
     32607 TIP3     5086     TIP3     H1       HT       0.417000       1.00800           0
     32608 TIP3     5086     TIP3     H2       HT       0.417000       1.00800           0
     32609 TIP3     5087     TIP3     OH2      OT      -0.834000       15.9994           0
     32610 TIP3     5087     TIP3     H1       HT       0.417000       1.00800           0
     32611 TIP3     5087     TIP3     H2       HT       0.417000       1.00800           0
     32612 TIP3     5088     TIP3     OH2      OT      -0.834000       15.9994           0
     32613 TIP3     5088     TIP3     H1       HT       0.417000       1.00800           0
     32614 TIP3     5088     TIP3     H2       HT       0.417000       1.00800           0
     32615 TIP3     5089     TIP3     OH2      OT      -0.834000       15.9994           0
     32616 TIP3     5089     TIP3     H1       HT       0.417000       1.00800           0
     32617 TIP3     5089     TIP3     H2       HT       0.417000       1.00800           0
     32618 TIP3     5090     TIP3     OH2      OT      -0.834000       15.9994           0
     32619 TIP3     5090     TIP3     H1       HT       0.417000       1.00800           0
     32620 TIP3     5090     TIP3     H2       HT       0.417000       1.00800           0
     32621 TIP3     5091     TIP3     OH2      OT      -0.834000       15.9994           0
     32622 TIP3     5091     TIP3     H1       HT       0.417000       1.00800           0
     32623 TIP3     5091     TIP3     H2       HT       0.417000       1.00800           0
     32624 TIP3     5092     TIP3     OH2      OT      -0.834000       15.9994           0
     32625 TIP3     5092     TIP3     H1       HT       0.417000       1.00800           0
     32626 TIP3     5092     TIP3     H2       HT       0.417000       1.00800           0
     32627 TIP3     5093     TIP3     OH2      OT      -0.834000       15.9994           0
     32628 TIP3     5093     TIP3     H1       HT       0.417000       1.00800           0
     32629 TIP3     5093     TIP3     H2       HT       0.417000       1.00800           0
     32630 TIP3     5094     TIP3     OH2      OT      -0.834000       15.9994           0
     32631 TIP3     5094     TIP3     H1       HT       0.417000       1.00800           0
     32632 TIP3     5094     TIP3     H2       HT       0.417000       1.00800           0
     32633 TIP3     5095     TIP3     OH2      OT      -0.834000       15.9994           0
     32634 TIP3     5095     TIP3     H1       HT       0.417000       1.00800           0
     32635 TIP3     5095     TIP3     H2       HT       0.417000       1.00800           0
     32636 TIP3     5096     TIP3     OH2      OT      -0.834000       15.9994           0
     32637 TIP3     5096     TIP3     H1       HT       0.417000       1.00800           0
     32638 TIP3     5096     TIP3     H2       HT       0.417000       1.00800           0
     32639 TIP3     5097     TIP3     OH2      OT      -0.834000       15.9994           0
     32640 TIP3     5097     TIP3     H1       HT       0.417000       1.00800           0
     32641 TIP3     5097     TIP3     H2       HT       0.417000       1.00800           0
     32642 TIP3     5098     TIP3     OH2      OT      -0.834000       15.9994           0
     32643 TIP3     5098     TIP3     H1       HT       0.417000       1.00800           0
     32644 TIP3     5098     TIP3     H2       HT       0.417000       1.00800           0
     32645 TIP3     5099     TIP3     OH2      OT      -0.834000       15.9994           0
     32646 TIP3     5099     TIP3     H1       HT       0.417000       1.00800           0
     32647 TIP3     5099     TIP3     H2       HT       0.417000       1.00800           0
     32648 TIP3     5100     TIP3     OH2      OT      -0.834000       15.9994           0
     32649 TIP3     5100     TIP3     H1       HT       0.417000       1.00800           0
     32650 TIP3     5100     TIP3     H2       HT       0.417000       1.00800           0
     32651 TIP3     5101     TIP3     OH2      OT      -0.834000       15.9994           0
     32652 TIP3     5101     TIP3     H1       HT       0.417000       1.00800           0
     32653 TIP3     5101     TIP3     H2       HT       0.417000       1.00800           0
     32654 TIP3     5102     TIP3     OH2      OT      -0.834000       15.9994           0
     32655 TIP3     5102     TIP3     H1       HT       0.417000       1.00800           0
     32656 TIP3     5102     TIP3     H2       HT       0.417000       1.00800           0
     32657 TIP3     5103     TIP3     OH2      OT      -0.834000       15.9994           0
     32658 TIP3     5103     TIP3     H1       HT       0.417000       1.00800           0
     32659 TIP3     5103     TIP3     H2       HT       0.417000       1.00800           0
     32660 TIP3     5104     TIP3     OH2      OT      -0.834000       15.9994           0
     32661 TIP3     5104     TIP3     H1       HT       0.417000       1.00800           0
     32662 TIP3     5104     TIP3     H2       HT       0.417000       1.00800           0
     32663 TIP3     5105     TIP3     OH2      OT      -0.834000       15.9994           0
     32664 TIP3     5105     TIP3     H1       HT       0.417000       1.00800           0
     32665 TIP3     5105     TIP3     H2       HT       0.417000       1.00800           0
     32666 TIP3     5106     TIP3     OH2      OT      -0.834000       15.9994           0
     32667 TIP3     5106     TIP3     H1       HT       0.417000       1.00800           0
     32668 TIP3     5106     TIP3     H2       HT       0.417000       1.00800           0
     32669 TIP3     5107     TIP3     OH2      OT      -0.834000       15.9994           0
     32670 TIP3     5107     TIP3     H1       HT       0.417000       1.00800           0
     32671 TIP3     5107     TIP3     H2       HT       0.417000       1.00800           0
     32672 TIP3     5108     TIP3     OH2      OT      -0.834000       15.9994           0
     32673 TIP3     5108     TIP3     H1       HT       0.417000       1.00800           0
     32674 TIP3     5108     TIP3     H2       HT       0.417000       1.00800           0
     32675 TIP3     5109     TIP3     OH2      OT      -0.834000       15.9994           0
     32676 TIP3     5109     TIP3     H1       HT       0.417000       1.00800           0
     32677 TIP3     5109     TIP3     H2       HT       0.417000       1.00800           0
     32678 TIP3     5110     TIP3     OH2      OT      -0.834000       15.9994           0
     32679 TIP3     5110     TIP3     H1       HT       0.417000       1.00800           0
     32680 TIP3     5110     TIP3     H2       HT       0.417000       1.00800           0
     32681 TIP3     5111     TIP3     OH2      OT      -0.834000       15.9994           0
     32682 TIP3     5111     TIP3     H1       HT       0.417000       1.00800           0
     32683 TIP3     5111     TIP3     H2       HT       0.417000       1.00800           0
     32684 TIP3     5112     TIP3     OH2      OT      -0.834000       15.9994           0
     32685 TIP3     5112     TIP3     H1       HT       0.417000       1.00800           0
     32686 TIP3     5112     TIP3     H2       HT       0.417000       1.00800           0
     32687 TIP3     5113     TIP3     OH2      OT      -0.834000       15.9994           0
     32688 TIP3     5113     TIP3     H1       HT       0.417000       1.00800           0
     32689 TIP3     5113     TIP3     H2       HT       0.417000       1.00800           0
     32690 TIP3     5114     TIP3     OH2      OT      -0.834000       15.9994           0
     32691 TIP3     5114     TIP3     H1       HT       0.417000       1.00800           0
     32692 TIP3     5114     TIP3     H2       HT       0.417000       1.00800           0
     32693 TIP3     5115     TIP3     OH2      OT      -0.834000       15.9994           0
     32694 TIP3     5115     TIP3     H1       HT       0.417000       1.00800           0
     32695 TIP3     5115     TIP3     H2       HT       0.417000       1.00800           0
     32696 TIP3     5116     TIP3     OH2      OT      -0.834000       15.9994           0
     32697 TIP3     5116     TIP3     H1       HT       0.417000       1.00800           0
     32698 TIP3     5116     TIP3     H2       HT       0.417000       1.00800           0
     32699 TIP3     5117     TIP3     OH2      OT      -0.834000       15.9994           0
     32700 TIP3     5117     TIP3     H1       HT       0.417000       1.00800           0
     32701 TIP3     5117     TIP3     H2       HT       0.417000       1.00800           0
     32702 TIP3     5118     TIP3     OH2      OT      -0.834000       15.9994           0
     32703 TIP3     5118     TIP3     H1       HT       0.417000       1.00800           0
     32704 TIP3     5118     TIP3     H2       HT       0.417000       1.00800           0
     32705 TIP3     5119     TIP3     OH2      OT      -0.834000       15.9994           0
     32706 TIP3     5119     TIP3     H1       HT       0.417000       1.00800           0
     32707 TIP3     5119     TIP3     H2       HT       0.417000       1.00800           0
     32708 TIP3     5120     TIP3     OH2      OT      -0.834000       15.9994           0
     32709 TIP3     5120     TIP3     H1       HT       0.417000       1.00800           0
     32710 TIP3     5120     TIP3     H2       HT       0.417000       1.00800           0
     32711 TIP3     5121     TIP3     OH2      OT      -0.834000       15.9994           0
     32712 TIP3     5121     TIP3     H1       HT       0.417000       1.00800           0
     32713 TIP3     5121     TIP3     H2       HT       0.417000       1.00800           0
     32714 TIP3     5122     TIP3     OH2      OT      -0.834000       15.9994           0
     32715 TIP3     5122     TIP3     H1       HT       0.417000       1.00800           0
     32716 TIP3     5122     TIP3     H2       HT       0.417000       1.00800           0
     32717 TIP3     5123     TIP3     OH2      OT      -0.834000       15.9994           0
     32718 TIP3     5123     TIP3     H1       HT       0.417000       1.00800           0
     32719 TIP3     5123     TIP3     H2       HT       0.417000       1.00800           0
     32720 TIP3     5124     TIP3     OH2      OT      -0.834000       15.9994           0
     32721 TIP3     5124     TIP3     H1       HT       0.417000       1.00800           0
     32722 TIP3     5124     TIP3     H2       HT       0.417000       1.00800           0
     32723 TIP3     5125     TIP3     OH2      OT      -0.834000       15.9994           0
     32724 TIP3     5125     TIP3     H1       HT       0.417000       1.00800           0
     32725 TIP3     5125     TIP3     H2       HT       0.417000       1.00800           0
     32726 TIP3     5126     TIP3     OH2      OT      -0.834000       15.9994           0
     32727 TIP3     5126     TIP3     H1       HT       0.417000       1.00800           0
     32728 TIP3     5126     TIP3     H2       HT       0.417000       1.00800           0
     32729 TIP3     5127     TIP3     OH2      OT      -0.834000       15.9994           0
     32730 TIP3     5127     TIP3     H1       HT       0.417000       1.00800           0
     32731 TIP3     5127     TIP3     H2       HT       0.417000       1.00800           0
     32732 TIP3     5128     TIP3     OH2      OT      -0.834000       15.9994           0
     32733 TIP3     5128     TIP3     H1       HT       0.417000       1.00800           0
     32734 TIP3     5128     TIP3     H2       HT       0.417000       1.00800           0
     32735 TIP3     5129     TIP3     OH2      OT      -0.834000       15.9994           0
     32736 TIP3     5129     TIP3     H1       HT       0.417000       1.00800           0
     32737 TIP3     5129     TIP3     H2       HT       0.417000       1.00800           0
     32738 TIP3     5130     TIP3     OH2      OT      -0.834000       15.9994           0
     32739 TIP3     5130     TIP3     H1       HT       0.417000       1.00800           0
     32740 TIP3     5130     TIP3     H2       HT       0.417000       1.00800           0
     32741 TIP3     5131     TIP3     OH2      OT      -0.834000       15.9994           0
     32742 TIP3     5131     TIP3     H1       HT       0.417000       1.00800           0
     32743 TIP3     5131     TIP3     H2       HT       0.417000       1.00800           0
     32744 TIP3     5132     TIP3     OH2      OT      -0.834000       15.9994           0
     32745 TIP3     5132     TIP3     H1       HT       0.417000       1.00800           0
     32746 TIP3     5132     TIP3     H2       HT       0.417000       1.00800           0
     32747 TIP3     5133     TIP3     OH2      OT      -0.834000       15.9994           0
     32748 TIP3     5133     TIP3     H1       HT       0.417000       1.00800           0
     32749 TIP3     5133     TIP3     H2       HT       0.417000       1.00800           0
     32750 TIP3     5134     TIP3     OH2      OT      -0.834000       15.9994           0
     32751 TIP3     5134     TIP3     H1       HT       0.417000       1.00800           0
     32752 TIP3     5134     TIP3     H2       HT       0.417000       1.00800           0
     32753 TIP3     5135     TIP3     OH2      OT      -0.834000       15.9994           0
     32754 TIP3     5135     TIP3     H1       HT       0.417000       1.00800           0
     32755 TIP3     5135     TIP3     H2       HT       0.417000       1.00800           0
     32756 TIP3     5136     TIP3     OH2      OT      -0.834000       15.9994           0
     32757 TIP3     5136     TIP3     H1       HT       0.417000       1.00800           0
     32758 TIP3     5136     TIP3     H2       HT       0.417000       1.00800           0
     32759 TIP3     5137     TIP3     OH2      OT      -0.834000       15.9994           0
     32760 TIP3     5137     TIP3     H1       HT       0.417000       1.00800           0
     32761 TIP3     5137     TIP3     H2       HT       0.417000       1.00800           0
     32762 TIP3     5138     TIP3     OH2      OT      -0.834000       15.9994           0
     32763 TIP3     5138     TIP3     H1       HT       0.417000       1.00800           0
     32764 TIP3     5138     TIP3     H2       HT       0.417000       1.00800           0
     32765 TIP3     5139     TIP3     OH2      OT      -0.834000       15.9994           0
     32766 TIP3     5139     TIP3     H1       HT       0.417000       1.00800           0
     32767 TIP3     5139     TIP3     H2       HT       0.417000       1.00800           0
     32768 TIP3     5140     TIP3     OH2      OT      -0.834000       15.9994           0
     32769 TIP3     5140     TIP3     H1       HT       0.417000       1.00800           0
     32770 TIP3     5140     TIP3     H2       HT       0.417000       1.00800           0
     32771 TIP3     5141     TIP3     OH2      OT      -0.834000       15.9994           0
     32772 TIP3     5141     TIP3     H1       HT       0.417000       1.00800           0
     32773 TIP3     5141     TIP3     H2       HT       0.417000       1.00800           0
     32774 TIP3     5142     TIP3     OH2      OT      -0.834000       15.9994           0
     32775 TIP3     5142     TIP3     H1       HT       0.417000       1.00800           0
     32776 TIP3     5142     TIP3     H2       HT       0.417000       1.00800           0
     32777 TIP3     5143     TIP3     OH2      OT      -0.834000       15.9994           0
     32778 TIP3     5143     TIP3     H1       HT       0.417000       1.00800           0
     32779 TIP3     5143     TIP3     H2       HT       0.417000       1.00800           0
     32780 TIP3     5144     TIP3     OH2      OT      -0.834000       15.9994           0
     32781 TIP3     5144     TIP3     H1       HT       0.417000       1.00800           0
     32782 TIP3     5144     TIP3     H2       HT       0.417000       1.00800           0
     32783 TIP3     5145     TIP3     OH2      OT      -0.834000       15.9994           0
     32784 TIP3     5145     TIP3     H1       HT       0.417000       1.00800           0
     32785 TIP3     5145     TIP3     H2       HT       0.417000       1.00800           0
     32786 TIP3     5146     TIP3     OH2      OT      -0.834000       15.9994           0
     32787 TIP3     5146     TIP3     H1       HT       0.417000       1.00800           0
     32788 TIP3     5146     TIP3     H2       HT       0.417000       1.00800           0
     32789 TIP3     5147     TIP3     OH2      OT      -0.834000       15.9994           0
     32790 TIP3     5147     TIP3     H1       HT       0.417000       1.00800           0
     32791 TIP3     5147     TIP3     H2       HT       0.417000       1.00800           0
     32792 TIP3     5148     TIP3     OH2      OT      -0.834000       15.9994           0
     32793 TIP3     5148     TIP3     H1       HT       0.417000       1.00800           0
     32794 TIP3     5148     TIP3     H2       HT       0.417000       1.00800           0
     32795 TIP3     5149     TIP3     OH2      OT      -0.834000       15.9994           0
     32796 TIP3     5149     TIP3     H1       HT       0.417000       1.00800           0
     32797 TIP3     5149     TIP3     H2       HT       0.417000       1.00800           0
     32798 TIP3     5150     TIP3     OH2      OT      -0.834000       15.9994           0
     32799 TIP3     5150     TIP3     H1       HT       0.417000       1.00800           0
     32800 TIP3     5150     TIP3     H2       HT       0.417000       1.00800           0
     32801 TIP3     5151     TIP3     OH2      OT      -0.834000       15.9994           0
     32802 TIP3     5151     TIP3     H1       HT       0.417000       1.00800           0
     32803 TIP3     5151     TIP3     H2       HT       0.417000       1.00800           0
     32804 TIP3     5152     TIP3     OH2      OT      -0.834000       15.9994           0
     32805 TIP3     5152     TIP3     H1       HT       0.417000       1.00800           0
     32806 TIP3     5152     TIP3     H2       HT       0.417000       1.00800           0
     32807 TIP3     5153     TIP3     OH2      OT      -0.834000       15.9994           0
     32808 TIP3     5153     TIP3     H1       HT       0.417000       1.00800           0
     32809 TIP3     5153     TIP3     H2       HT       0.417000       1.00800           0
     32810 TIP3     5154     TIP3     OH2      OT      -0.834000       15.9994           0
     32811 TIP3     5154     TIP3     H1       HT       0.417000       1.00800           0
     32812 TIP3     5154     TIP3     H2       HT       0.417000       1.00800           0
     32813 TIP3     5155     TIP3     OH2      OT      -0.834000       15.9994           0
     32814 TIP3     5155     TIP3     H1       HT       0.417000       1.00800           0
     32815 TIP3     5155     TIP3     H2       HT       0.417000       1.00800           0
     32816 TIP3     5156     TIP3     OH2      OT      -0.834000       15.9994           0
     32817 TIP3     5156     TIP3     H1       HT       0.417000       1.00800           0
     32818 TIP3     5156     TIP3     H2       HT       0.417000       1.00800           0
     32819 TIP3     5157     TIP3     OH2      OT      -0.834000       15.9994           0
     32820 TIP3     5157     TIP3     H1       HT       0.417000       1.00800           0
     32821 TIP3     5157     TIP3     H2       HT       0.417000       1.00800           0
     32822 TIP3     5158     TIP3     OH2      OT      -0.834000       15.9994           0
     32823 TIP3     5158     TIP3     H1       HT       0.417000       1.00800           0
     32824 TIP3     5158     TIP3     H2       HT       0.417000       1.00800           0
     32825 TIP3     5159     TIP3     OH2      OT      -0.834000       15.9994           0
     32826 TIP3     5159     TIP3     H1       HT       0.417000       1.00800           0
     32827 TIP3     5159     TIP3     H2       HT       0.417000       1.00800           0
     32828 TIP3     5160     TIP3     OH2      OT      -0.834000       15.9994           0
     32829 TIP3     5160     TIP3     H1       HT       0.417000       1.00800           0
     32830 TIP3     5160     TIP3     H2       HT       0.417000       1.00800           0
     32831 TIP3     5161     TIP3     OH2      OT      -0.834000       15.9994           0
     32832 TIP3     5161     TIP3     H1       HT       0.417000       1.00800           0
     32833 TIP3     5161     TIP3     H2       HT       0.417000       1.00800           0
     32834 TIP3     5162     TIP3     OH2      OT      -0.834000       15.9994           0
     32835 TIP3     5162     TIP3     H1       HT       0.417000       1.00800           0
     32836 TIP3     5162     TIP3     H2       HT       0.417000       1.00800           0
     32837 TIP3     5163     TIP3     OH2      OT      -0.834000       15.9994           0
     32838 TIP3     5163     TIP3     H1       HT       0.417000       1.00800           0
     32839 TIP3     5163     TIP3     H2       HT       0.417000       1.00800           0
     32840 TIP3     5164     TIP3     OH2      OT      -0.834000       15.9994           0
     32841 TIP3     5164     TIP3     H1       HT       0.417000       1.00800           0
     32842 TIP3     5164     TIP3     H2       HT       0.417000       1.00800           0
     32843 TIP3     5165     TIP3     OH2      OT      -0.834000       15.9994           0
     32844 TIP3     5165     TIP3     H1       HT       0.417000       1.00800           0
     32845 TIP3     5165     TIP3     H2       HT       0.417000       1.00800           0
     32846 TIP3     5166     TIP3     OH2      OT      -0.834000       15.9994           0
     32847 TIP3     5166     TIP3     H1       HT       0.417000       1.00800           0
     32848 TIP3     5166     TIP3     H2       HT       0.417000       1.00800           0
     32849 TIP3     5167     TIP3     OH2      OT      -0.834000       15.9994           0
     32850 TIP3     5167     TIP3     H1       HT       0.417000       1.00800           0
     32851 TIP3     5167     TIP3     H2       HT       0.417000       1.00800           0
     32852 TIP3     5168     TIP3     OH2      OT      -0.834000       15.9994           0
     32853 TIP3     5168     TIP3     H1       HT       0.417000       1.00800           0
     32854 TIP3     5168     TIP3     H2       HT       0.417000       1.00800           0
     32855 TIP3     5169     TIP3     OH2      OT      -0.834000       15.9994           0
     32856 TIP3     5169     TIP3     H1       HT       0.417000       1.00800           0
     32857 TIP3     5169     TIP3     H2       HT       0.417000       1.00800           0
     32858 TIP3     5170     TIP3     OH2      OT      -0.834000       15.9994           0
     32859 TIP3     5170     TIP3     H1       HT       0.417000       1.00800           0
     32860 TIP3     5170     TIP3     H2       HT       0.417000       1.00800           0
     32861 TIP3     5171     TIP3     OH2      OT      -0.834000       15.9994           0
     32862 TIP3     5171     TIP3     H1       HT       0.417000       1.00800           0
     32863 TIP3     5171     TIP3     H2       HT       0.417000       1.00800           0
     32864 TIP3     5172     TIP3     OH2      OT      -0.834000       15.9994           0
     32865 TIP3     5172     TIP3     H1       HT       0.417000       1.00800           0
     32866 TIP3     5172     TIP3     H2       HT       0.417000       1.00800           0
     32867 TIP3     5173     TIP3     OH2      OT      -0.834000       15.9994           0
     32868 TIP3     5173     TIP3     H1       HT       0.417000       1.00800           0
     32869 TIP3     5173     TIP3     H2       HT       0.417000       1.00800           0
     32870 TIP3     5174     TIP3     OH2      OT      -0.834000       15.9994           0
     32871 TIP3     5174     TIP3     H1       HT       0.417000       1.00800           0
     32872 TIP3     5174     TIP3     H2       HT       0.417000       1.00800           0
     32873 TIP3     5175     TIP3     OH2      OT      -0.834000       15.9994           0
     32874 TIP3     5175     TIP3     H1       HT       0.417000       1.00800           0
     32875 TIP3     5175     TIP3     H2       HT       0.417000       1.00800           0
     32876 TIP3     5176     TIP3     OH2      OT      -0.834000       15.9994           0
     32877 TIP3     5176     TIP3     H1       HT       0.417000       1.00800           0
     32878 TIP3     5176     TIP3     H2       HT       0.417000       1.00800           0
     32879 TIP3     5177     TIP3     OH2      OT      -0.834000       15.9994           0
     32880 TIP3     5177     TIP3     H1       HT       0.417000       1.00800           0
     32881 TIP3     5177     TIP3     H2       HT       0.417000       1.00800           0
     32882 TIP3     5178     TIP3     OH2      OT      -0.834000       15.9994           0
     32883 TIP3     5178     TIP3     H1       HT       0.417000       1.00800           0
     32884 TIP3     5178     TIP3     H2       HT       0.417000       1.00800           0
     32885 TIP3     5179     TIP3     OH2      OT      -0.834000       15.9994           0
     32886 TIP3     5179     TIP3     H1       HT       0.417000       1.00800           0
     32887 TIP3     5179     TIP3     H2       HT       0.417000       1.00800           0
     32888 TIP3     5180     TIP3     OH2      OT      -0.834000       15.9994           0
     32889 TIP3     5180     TIP3     H1       HT       0.417000       1.00800           0
     32890 TIP3     5180     TIP3     H2       HT       0.417000       1.00800           0
     32891 TIP3     5181     TIP3     OH2      OT      -0.834000       15.9994           0
     32892 TIP3     5181     TIP3     H1       HT       0.417000       1.00800           0
     32893 TIP3     5181     TIP3     H2       HT       0.417000       1.00800           0
     32894 TIP3     5182     TIP3     OH2      OT      -0.834000       15.9994           0
     32895 TIP3     5182     TIP3     H1       HT       0.417000       1.00800           0
     32896 TIP3     5182     TIP3     H2       HT       0.417000       1.00800           0
     32897 TIP3     5183     TIP3     OH2      OT      -0.834000       15.9994           0
     32898 TIP3     5183     TIP3     H1       HT       0.417000       1.00800           0
     32899 TIP3     5183     TIP3     H2       HT       0.417000       1.00800           0
     32900 TIP3     5184     TIP3     OH2      OT      -0.834000       15.9994           0
     32901 TIP3     5184     TIP3     H1       HT       0.417000       1.00800           0
     32902 TIP3     5184     TIP3     H2       HT       0.417000       1.00800           0
     32903 TIP3     5185     TIP3     OH2      OT      -0.834000       15.9994           0
     32904 TIP3     5185     TIP3     H1       HT       0.417000       1.00800           0
     32905 TIP3     5185     TIP3     H2       HT       0.417000       1.00800           0
     32906 TIP3     5186     TIP3     OH2      OT      -0.834000       15.9994           0
     32907 TIP3     5186     TIP3     H1       HT       0.417000       1.00800           0
     32908 TIP3     5186     TIP3     H2       HT       0.417000       1.00800           0
     32909 TIP3     5187     TIP3     OH2      OT      -0.834000       15.9994           0
     32910 TIP3     5187     TIP3     H1       HT       0.417000       1.00800           0
     32911 TIP3     5187     TIP3     H2       HT       0.417000       1.00800           0
     32912 TIP3     5188     TIP3     OH2      OT      -0.834000       15.9994           0
     32913 TIP3     5188     TIP3     H1       HT       0.417000       1.00800           0
     32914 TIP3     5188     TIP3     H2       HT       0.417000       1.00800           0
     32915 TIP3     5189     TIP3     OH2      OT      -0.834000       15.9994           0
     32916 TIP3     5189     TIP3     H1       HT       0.417000       1.00800           0
     32917 TIP3     5189     TIP3     H2       HT       0.417000       1.00800           0
     32918 TIP3     5190     TIP3     OH2      OT      -0.834000       15.9994           0
     32919 TIP3     5190     TIP3     H1       HT       0.417000       1.00800           0
     32920 TIP3     5190     TIP3     H2       HT       0.417000       1.00800           0
     32921 TIP3     5191     TIP3     OH2      OT      -0.834000       15.9994           0
     32922 TIP3     5191     TIP3     H1       HT       0.417000       1.00800           0
     32923 TIP3     5191     TIP3     H2       HT       0.417000       1.00800           0
     32924 TIP3     5192     TIP3     OH2      OT      -0.834000       15.9994           0
     32925 TIP3     5192     TIP3     H1       HT       0.417000       1.00800           0
     32926 TIP3     5192     TIP3     H2       HT       0.417000       1.00800           0
     32927 TIP3     5193     TIP3     OH2      OT      -0.834000       15.9994           0
     32928 TIP3     5193     TIP3     H1       HT       0.417000       1.00800           0
     32929 TIP3     5193     TIP3     H2       HT       0.417000       1.00800           0
     32930 TIP3     5194     TIP3     OH2      OT      -0.834000       15.9994           0
     32931 TIP3     5194     TIP3     H1       HT       0.417000       1.00800           0
     32932 TIP3     5194     TIP3     H2       HT       0.417000       1.00800           0
     32933 TIP3     5195     TIP3     OH2      OT      -0.834000       15.9994           0
     32934 TIP3     5195     TIP3     H1       HT       0.417000       1.00800           0
     32935 TIP3     5195     TIP3     H2       HT       0.417000       1.00800           0
     32936 TIP3     5196     TIP3     OH2      OT      -0.834000       15.9994           0
     32937 TIP3     5196     TIP3     H1       HT       0.417000       1.00800           0
     32938 TIP3     5196     TIP3     H2       HT       0.417000       1.00800           0
     32939 TIP3     5197     TIP3     OH2      OT      -0.834000       15.9994           0
     32940 TIP3     5197     TIP3     H1       HT       0.417000       1.00800           0
     32941 TIP3     5197     TIP3     H2       HT       0.417000       1.00800           0
     32942 TIP3     5198     TIP3     OH2      OT      -0.834000       15.9994           0
     32943 TIP3     5198     TIP3     H1       HT       0.417000       1.00800           0
     32944 TIP3     5198     TIP3     H2       HT       0.417000       1.00800           0
     32945 TIP3     5199     TIP3     OH2      OT      -0.834000       15.9994           0
     32946 TIP3     5199     TIP3     H1       HT       0.417000       1.00800           0
     32947 TIP3     5199     TIP3     H2       HT       0.417000       1.00800           0
     32948 TIP3     5200     TIP3     OH2      OT      -0.834000       15.9994           0
     32949 TIP3     5200     TIP3     H1       HT       0.417000       1.00800           0
     32950 TIP3     5200     TIP3     H2       HT       0.417000       1.00800           0
     32951 TIP3     5201     TIP3     OH2      OT      -0.834000       15.9994           0
     32952 TIP3     5201     TIP3     H1       HT       0.417000       1.00800           0
     32953 TIP3     5201     TIP3     H2       HT       0.417000       1.00800           0
     32954 TIP3     5202     TIP3     OH2      OT      -0.834000       15.9994           0
     32955 TIP3     5202     TIP3     H1       HT       0.417000       1.00800           0
     32956 TIP3     5202     TIP3     H2       HT       0.417000       1.00800           0
     32957 TIP3     5203     TIP3     OH2      OT      -0.834000       15.9994           0
     32958 TIP3     5203     TIP3     H1       HT       0.417000       1.00800           0
     32959 TIP3     5203     TIP3     H2       HT       0.417000       1.00800           0
     32960 TIP3     5204     TIP3     OH2      OT      -0.834000       15.9994           0
     32961 TIP3     5204     TIP3     H1       HT       0.417000       1.00800           0
     32962 TIP3     5204     TIP3     H2       HT       0.417000       1.00800           0
     32963 TIP3     5205     TIP3     OH2      OT      -0.834000       15.9994           0
     32964 TIP3     5205     TIP3     H1       HT       0.417000       1.00800           0
     32965 TIP3     5205     TIP3     H2       HT       0.417000       1.00800           0
     32966 TIP3     5206     TIP3     OH2      OT      -0.834000       15.9994           0
     32967 TIP3     5206     TIP3     H1       HT       0.417000       1.00800           0
     32968 TIP3     5206     TIP3     H2       HT       0.417000       1.00800           0
     32969 TIP3     5207     TIP3     OH2      OT      -0.834000       15.9994           0
     32970 TIP3     5207     TIP3     H1       HT       0.417000       1.00800           0
     32971 TIP3     5207     TIP3     H2       HT       0.417000       1.00800           0
     32972 TIP3     5208     TIP3     OH2      OT      -0.834000       15.9994           0
     32973 TIP3     5208     TIP3     H1       HT       0.417000       1.00800           0
     32974 TIP3     5208     TIP3     H2       HT       0.417000       1.00800           0
     32975 TIP3     5209     TIP3     OH2      OT      -0.834000       15.9994           0
     32976 TIP3     5209     TIP3     H1       HT       0.417000       1.00800           0
     32977 TIP3     5209     TIP3     H2       HT       0.417000       1.00800           0
     32978 TIP3     5210     TIP3     OH2      OT      -0.834000       15.9994           0
     32979 TIP3     5210     TIP3     H1       HT       0.417000       1.00800           0
     32980 TIP3     5210     TIP3     H2       HT       0.417000       1.00800           0
     32981 TIP3     5211     TIP3     OH2      OT      -0.834000       15.9994           0
     32982 TIP3     5211     TIP3     H1       HT       0.417000       1.00800           0
     32983 TIP3     5211     TIP3     H2       HT       0.417000       1.00800           0
     32984 TIP3     5212     TIP3     OH2      OT      -0.834000       15.9994           0
     32985 TIP3     5212     TIP3     H1       HT       0.417000       1.00800           0
     32986 TIP3     5212     TIP3     H2       HT       0.417000       1.00800           0
     32987 TIP3     5213     TIP3     OH2      OT      -0.834000       15.9994           0
     32988 TIP3     5213     TIP3     H1       HT       0.417000       1.00800           0
     32989 TIP3     5213     TIP3     H2       HT       0.417000       1.00800           0
     32990 TIP3     5214     TIP3     OH2      OT      -0.834000       15.9994           0
     32991 TIP3     5214     TIP3     H1       HT       0.417000       1.00800           0
     32992 TIP3     5214     TIP3     H2       HT       0.417000       1.00800           0
     32993 TIP3     5215     TIP3     OH2      OT      -0.834000       15.9994           0
     32994 TIP3     5215     TIP3     H1       HT       0.417000       1.00800           0
     32995 TIP3     5215     TIP3     H2       HT       0.417000       1.00800           0
     32996 TIP3     5216     TIP3     OH2      OT      -0.834000       15.9994           0
     32997 TIP3     5216     TIP3     H1       HT       0.417000       1.00800           0
     32998 TIP3     5216     TIP3     H2       HT       0.417000       1.00800           0
     32999 TIP3     5217     TIP3     OH2      OT      -0.834000       15.9994           0
     33000 TIP3     5217     TIP3     H1       HT       0.417000       1.00800           0
     33001 TIP3     5217     TIP3     H2       HT       0.417000       1.00800           0
     33002 TIP3     5218     TIP3     OH2      OT      -0.834000       15.9994           0
     33003 TIP3     5218     TIP3     H1       HT       0.417000       1.00800           0
     33004 TIP3     5218     TIP3     H2       HT       0.417000       1.00800           0
     33005 TIP3     5219     TIP3     OH2      OT      -0.834000       15.9994           0
     33006 TIP3     5219     TIP3     H1       HT       0.417000       1.00800           0
     33007 TIP3     5219     TIP3     H2       HT       0.417000       1.00800           0
     33008 TIP3     5220     TIP3     OH2      OT      -0.834000       15.9994           0
     33009 TIP3     5220     TIP3     H1       HT       0.417000       1.00800           0
     33010 TIP3     5220     TIP3     H2       HT       0.417000       1.00800           0
     33011 TIP3     5221     TIP3     OH2      OT      -0.834000       15.9994           0
     33012 TIP3     5221     TIP3     H1       HT       0.417000       1.00800           0
     33013 TIP3     5221     TIP3     H2       HT       0.417000       1.00800           0
     33014 TIP3     5222     TIP3     OH2      OT      -0.834000       15.9994           0
     33015 TIP3     5222     TIP3     H1       HT       0.417000       1.00800           0
     33016 TIP3     5222     TIP3     H2       HT       0.417000       1.00800           0
     33017 TIP3     5223     TIP3     OH2      OT      -0.834000       15.9994           0
     33018 TIP3     5223     TIP3     H1       HT       0.417000       1.00800           0
     33019 TIP3     5223     TIP3     H2       HT       0.417000       1.00800           0
     33020 TIP3     5224     TIP3     OH2      OT      -0.834000       15.9994           0
     33021 TIP3     5224     TIP3     H1       HT       0.417000       1.00800           0
     33022 TIP3     5224     TIP3     H2       HT       0.417000       1.00800           0
     33023 TIP3     5225     TIP3     OH2      OT      -0.834000       15.9994           0
     33024 TIP3     5225     TIP3     H1       HT       0.417000       1.00800           0
     33025 TIP3     5225     TIP3     H2       HT       0.417000       1.00800           0
     33026 TIP3     5226     TIP3     OH2      OT      -0.834000       15.9994           0
     33027 TIP3     5226     TIP3     H1       HT       0.417000       1.00800           0
     33028 TIP3     5226     TIP3     H2       HT       0.417000       1.00800           0
     33029 TIP3     5227     TIP3     OH2      OT      -0.834000       15.9994           0
     33030 TIP3     5227     TIP3     H1       HT       0.417000       1.00800           0
     33031 TIP3     5227     TIP3     H2       HT       0.417000       1.00800           0
     33032 TIP3     5228     TIP3     OH2      OT      -0.834000       15.9994           0
     33033 TIP3     5228     TIP3     H1       HT       0.417000       1.00800           0
     33034 TIP3     5228     TIP3     H2       HT       0.417000       1.00800           0
     33035 TIP3     5229     TIP3     OH2      OT      -0.834000       15.9994           0
     33036 TIP3     5229     TIP3     H1       HT       0.417000       1.00800           0
     33037 TIP3     5229     TIP3     H2       HT       0.417000       1.00800           0
     33038 TIP3     5230     TIP3     OH2      OT      -0.834000       15.9994           0
     33039 TIP3     5230     TIP3     H1       HT       0.417000       1.00800           0
     33040 TIP3     5230     TIP3     H2       HT       0.417000       1.00800           0
     33041 TIP3     5231     TIP3     OH2      OT      -0.834000       15.9994           0
     33042 TIP3     5231     TIP3     H1       HT       0.417000       1.00800           0
     33043 TIP3     5231     TIP3     H2       HT       0.417000       1.00800           0
     33044 TIP3     5232     TIP3     OH2      OT      -0.834000       15.9994           0
     33045 TIP3     5232     TIP3     H1       HT       0.417000       1.00800           0
     33046 TIP3     5232     TIP3     H2       HT       0.417000       1.00800           0
     33047 TIP3     5233     TIP3     OH2      OT      -0.834000       15.9994           0
     33048 TIP3     5233     TIP3     H1       HT       0.417000       1.00800           0
     33049 TIP3     5233     TIP3     H2       HT       0.417000       1.00800           0
     33050 TIP3     5234     TIP3     OH2      OT      -0.834000       15.9994           0
     33051 TIP3     5234     TIP3     H1       HT       0.417000       1.00800           0
     33052 TIP3     5234     TIP3     H2       HT       0.417000       1.00800           0
     33053 TIP3     5235     TIP3     OH2      OT      -0.834000       15.9994           0
     33054 TIP3     5235     TIP3     H1       HT       0.417000       1.00800           0
     33055 TIP3     5235     TIP3     H2       HT       0.417000       1.00800           0
     33056 TIP3     5236     TIP3     OH2      OT      -0.834000       15.9994           0
     33057 TIP3     5236     TIP3     H1       HT       0.417000       1.00800           0
     33058 TIP3     5236     TIP3     H2       HT       0.417000       1.00800           0
     33059 TIP3     5237     TIP3     OH2      OT      -0.834000       15.9994           0
     33060 TIP3     5237     TIP3     H1       HT       0.417000       1.00800           0
     33061 TIP3     5237     TIP3     H2       HT       0.417000       1.00800           0
     33062 TIP3     5238     TIP3     OH2      OT      -0.834000       15.9994           0
     33063 TIP3     5238     TIP3     H1       HT       0.417000       1.00800           0
     33064 TIP3     5238     TIP3     H2       HT       0.417000       1.00800           0
     33065 TIP3     5239     TIP3     OH2      OT      -0.834000       15.9994           0
     33066 TIP3     5239     TIP3     H1       HT       0.417000       1.00800           0
     33067 TIP3     5239     TIP3     H2       HT       0.417000       1.00800           0
     33068 TIP3     5240     TIP3     OH2      OT      -0.834000       15.9994           0
     33069 TIP3     5240     TIP3     H1       HT       0.417000       1.00800           0
     33070 TIP3     5240     TIP3     H2       HT       0.417000       1.00800           0
     33071 TIP3     5241     TIP3     OH2      OT      -0.834000       15.9994           0
     33072 TIP3     5241     TIP3     H1       HT       0.417000       1.00800           0
     33073 TIP3     5241     TIP3     H2       HT       0.417000       1.00800           0
     33074 TIP3     5242     TIP3     OH2      OT      -0.834000       15.9994           0
     33075 TIP3     5242     TIP3     H1       HT       0.417000       1.00800           0
     33076 TIP3     5242     TIP3     H2       HT       0.417000       1.00800           0
     33077 TIP3     5243     TIP3     OH2      OT      -0.834000       15.9994           0
     33078 TIP3     5243     TIP3     H1       HT       0.417000       1.00800           0
     33079 TIP3     5243     TIP3     H2       HT       0.417000       1.00800           0
     33080 TIP3     5244     TIP3     OH2      OT      -0.834000       15.9994           0
     33081 TIP3     5244     TIP3     H1       HT       0.417000       1.00800           0
     33082 TIP3     5244     TIP3     H2       HT       0.417000       1.00800           0
     33083 TIP3     5245     TIP3     OH2      OT      -0.834000       15.9994           0
     33084 TIP3     5245     TIP3     H1       HT       0.417000       1.00800           0
     33085 TIP3     5245     TIP3     H2       HT       0.417000       1.00800           0
     33086 TIP3     5246     TIP3     OH2      OT      -0.834000       15.9994           0
     33087 TIP3     5246     TIP3     H1       HT       0.417000       1.00800           0
     33088 TIP3     5246     TIP3     H2       HT       0.417000       1.00800           0
     33089 TIP3     5247     TIP3     OH2      OT      -0.834000       15.9994           0
     33090 TIP3     5247     TIP3     H1       HT       0.417000       1.00800           0
     33091 TIP3     5247     TIP3     H2       HT       0.417000       1.00800           0
     33092 TIP3     5248     TIP3     OH2      OT      -0.834000       15.9994           0
     33093 TIP3     5248     TIP3     H1       HT       0.417000       1.00800           0
     33094 TIP3     5248     TIP3     H2       HT       0.417000       1.00800           0
     33095 TIP3     5249     TIP3     OH2      OT      -0.834000       15.9994           0
     33096 TIP3     5249     TIP3     H1       HT       0.417000       1.00800           0
     33097 TIP3     5249     TIP3     H2       HT       0.417000       1.00800           0
     33098 TIP3     5250     TIP3     OH2      OT      -0.834000       15.9994           0
     33099 TIP3     5250     TIP3     H1       HT       0.417000       1.00800           0
     33100 TIP3     5250     TIP3     H2       HT       0.417000       1.00800           0
     33101 TIP3     5251     TIP3     OH2      OT      -0.834000       15.9994           0
     33102 TIP3     5251     TIP3     H1       HT       0.417000       1.00800           0
     33103 TIP3     5251     TIP3     H2       HT       0.417000       1.00800           0
     33104 TIP3     5252     TIP3     OH2      OT      -0.834000       15.9994           0
     33105 TIP3     5252     TIP3     H1       HT       0.417000       1.00800           0
     33106 TIP3     5252     TIP3     H2       HT       0.417000       1.00800           0
     33107 TIP3     5253     TIP3     OH2      OT      -0.834000       15.9994           0
     33108 TIP3     5253     TIP3     H1       HT       0.417000       1.00800           0
     33109 TIP3     5253     TIP3     H2       HT       0.417000       1.00800           0
     33110 TIP3     5254     TIP3     OH2      OT      -0.834000       15.9994           0
     33111 TIP3     5254     TIP3     H1       HT       0.417000       1.00800           0
     33112 TIP3     5254     TIP3     H2       HT       0.417000       1.00800           0
     33113 TIP3     5255     TIP3     OH2      OT      -0.834000       15.9994           0
     33114 TIP3     5255     TIP3     H1       HT       0.417000       1.00800           0
     33115 TIP3     5255     TIP3     H2       HT       0.417000       1.00800           0
     33116 TIP3     5256     TIP3     OH2      OT      -0.834000       15.9994           0
     33117 TIP3     5256     TIP3     H1       HT       0.417000       1.00800           0
     33118 TIP3     5256     TIP3     H2       HT       0.417000       1.00800           0
     33119 TIP3     5257     TIP3     OH2      OT      -0.834000       15.9994           0
     33120 TIP3     5257     TIP3     H1       HT       0.417000       1.00800           0
     33121 TIP3     5257     TIP3     H2       HT       0.417000       1.00800           0
     33122 TIP3     5258     TIP3     OH2      OT      -0.834000       15.9994           0
     33123 TIP3     5258     TIP3     H1       HT       0.417000       1.00800           0
     33124 TIP3     5258     TIP3     H2       HT       0.417000       1.00800           0
     33125 TIP3     5259     TIP3     OH2      OT      -0.834000       15.9994           0
     33126 TIP3     5259     TIP3     H1       HT       0.417000       1.00800           0
     33127 TIP3     5259     TIP3     H2       HT       0.417000       1.00800           0
     33128 TIP3     5260     TIP3     OH2      OT      -0.834000       15.9994           0
     33129 TIP3     5260     TIP3     H1       HT       0.417000       1.00800           0
     33130 TIP3     5260     TIP3     H2       HT       0.417000       1.00800           0
     33131 TIP3     5261     TIP3     OH2      OT      -0.834000       15.9994           0
     33132 TIP3     5261     TIP3     H1       HT       0.417000       1.00800           0
     33133 TIP3     5261     TIP3     H2       HT       0.417000       1.00800           0
     33134 TIP3     5262     TIP3     OH2      OT      -0.834000       15.9994           0
     33135 TIP3     5262     TIP3     H1       HT       0.417000       1.00800           0
     33136 TIP3     5262     TIP3     H2       HT       0.417000       1.00800           0
     33137 TIP3     5263     TIP3     OH2      OT      -0.834000       15.9994           0
     33138 TIP3     5263     TIP3     H1       HT       0.417000       1.00800           0
     33139 TIP3     5263     TIP3     H2       HT       0.417000       1.00800           0
     33140 TIP3     5264     TIP3     OH2      OT      -0.834000       15.9994           0
     33141 TIP3     5264     TIP3     H1       HT       0.417000       1.00800           0
     33142 TIP3     5264     TIP3     H2       HT       0.417000       1.00800           0
     33143 TIP3     5265     TIP3     OH2      OT      -0.834000       15.9994           0
     33144 TIP3     5265     TIP3     H1       HT       0.417000       1.00800           0
     33145 TIP3     5265     TIP3     H2       HT       0.417000       1.00800           0
     33146 TIP3     5266     TIP3     OH2      OT      -0.834000       15.9994           0
     33147 TIP3     5266     TIP3     H1       HT       0.417000       1.00800           0
     33148 TIP3     5266     TIP3     H2       HT       0.417000       1.00800           0
     33149 TIP3     5267     TIP3     OH2      OT      -0.834000       15.9994           0
     33150 TIP3     5267     TIP3     H1       HT       0.417000       1.00800           0
     33151 TIP3     5267     TIP3     H2       HT       0.417000       1.00800           0
     33152 TIP3     5268     TIP3     OH2      OT      -0.834000       15.9994           0
     33153 TIP3     5268     TIP3     H1       HT       0.417000       1.00800           0
     33154 TIP3     5268     TIP3     H2       HT       0.417000       1.00800           0
     33155 TIP3     5269     TIP3     OH2      OT      -0.834000       15.9994           0
     33156 TIP3     5269     TIP3     H1       HT       0.417000       1.00800           0
     33157 TIP3     5269     TIP3     H2       HT       0.417000       1.00800           0
     33158 TIP3     5270     TIP3     OH2      OT      -0.834000       15.9994           0
     33159 TIP3     5270     TIP3     H1       HT       0.417000       1.00800           0
     33160 TIP3     5270     TIP3     H2       HT       0.417000       1.00800           0
     33161 TIP3     5271     TIP3     OH2      OT      -0.834000       15.9994           0
     33162 TIP3     5271     TIP3     H1       HT       0.417000       1.00800           0
     33163 TIP3     5271     TIP3     H2       HT       0.417000       1.00800           0
     33164 TIP3     5272     TIP3     OH2      OT      -0.834000       15.9994           0
     33165 TIP3     5272     TIP3     H1       HT       0.417000       1.00800           0
     33166 TIP3     5272     TIP3     H2       HT       0.417000       1.00800           0
     33167 TIP3     5273     TIP3     OH2      OT      -0.834000       15.9994           0
     33168 TIP3     5273     TIP3     H1       HT       0.417000       1.00800           0
     33169 TIP3     5273     TIP3     H2       HT       0.417000       1.00800           0
     33170 TIP3     5274     TIP3     OH2      OT      -0.834000       15.9994           0
     33171 TIP3     5274     TIP3     H1       HT       0.417000       1.00800           0
     33172 TIP3     5274     TIP3     H2       HT       0.417000       1.00800           0
     33173 TIP3     5275     TIP3     OH2      OT      -0.834000       15.9994           0
     33174 TIP3     5275     TIP3     H1       HT       0.417000       1.00800           0
     33175 TIP3     5275     TIP3     H2       HT       0.417000       1.00800           0
     33176 TIP3     5276     TIP3     OH2      OT      -0.834000       15.9994           0
     33177 TIP3     5276     TIP3     H1       HT       0.417000       1.00800           0
     33178 TIP3     5276     TIP3     H2       HT       0.417000       1.00800           0
     33179 TIP3     5277     TIP3     OH2      OT      -0.834000       15.9994           0
     33180 TIP3     5277     TIP3     H1       HT       0.417000       1.00800           0
     33181 TIP3     5277     TIP3     H2       HT       0.417000       1.00800           0
     33182 TIP3     5278     TIP3     OH2      OT      -0.834000       15.9994           0
     33183 TIP3     5278     TIP3     H1       HT       0.417000       1.00800           0
     33184 TIP3     5278     TIP3     H2       HT       0.417000       1.00800           0
     33185 TIP3     5279     TIP3     OH2      OT      -0.834000       15.9994           0
     33186 TIP3     5279     TIP3     H1       HT       0.417000       1.00800           0
     33187 TIP3     5279     TIP3     H2       HT       0.417000       1.00800           0
     33188 TIP3     5280     TIP3     OH2      OT      -0.834000       15.9994           0
     33189 TIP3     5280     TIP3     H1       HT       0.417000       1.00800           0
     33190 TIP3     5280     TIP3     H2       HT       0.417000       1.00800           0
     33191 TIP3     5281     TIP3     OH2      OT      -0.834000       15.9994           0
     33192 TIP3     5281     TIP3     H1       HT       0.417000       1.00800           0
     33193 TIP3     5281     TIP3     H2       HT       0.417000       1.00800           0
     33194 TIP3     5282     TIP3     OH2      OT      -0.834000       15.9994           0
     33195 TIP3     5282     TIP3     H1       HT       0.417000       1.00800           0
     33196 TIP3     5282     TIP3     H2       HT       0.417000       1.00800           0
     33197 TIP3     5283     TIP3     OH2      OT      -0.834000       15.9994           0
     33198 TIP3     5283     TIP3     H1       HT       0.417000       1.00800           0
     33199 TIP3     5283     TIP3     H2       HT       0.417000       1.00800           0
     33200 TIP3     5284     TIP3     OH2      OT      -0.834000       15.9994           0
     33201 TIP3     5284     TIP3     H1       HT       0.417000       1.00800           0
     33202 TIP3     5284     TIP3     H2       HT       0.417000       1.00800           0
     33203 TIP3     5285     TIP3     OH2      OT      -0.834000       15.9994           0
     33204 TIP3     5285     TIP3     H1       HT       0.417000       1.00800           0
     33205 TIP3     5285     TIP3     H2       HT       0.417000       1.00800           0
     33206 TIP3     5286     TIP3     OH2      OT      -0.834000       15.9994           0
     33207 TIP3     5286     TIP3     H1       HT       0.417000       1.00800           0
     33208 TIP3     5286     TIP3     H2       HT       0.417000       1.00800           0
     33209 TIP3     5287     TIP3     OH2      OT      -0.834000       15.9994           0
     33210 TIP3     5287     TIP3     H1       HT       0.417000       1.00800           0
     33211 TIP3     5287     TIP3     H2       HT       0.417000       1.00800           0
     33212 TIP3     5288     TIP3     OH2      OT      -0.834000       15.9994           0
     33213 TIP3     5288     TIP3     H1       HT       0.417000       1.00800           0
     33214 TIP3     5288     TIP3     H2       HT       0.417000       1.00800           0
     33215 TIP3     5289     TIP3     OH2      OT      -0.834000       15.9994           0
     33216 TIP3     5289     TIP3     H1       HT       0.417000       1.00800           0
     33217 TIP3     5289     TIP3     H2       HT       0.417000       1.00800           0
     33218 TIP3     5290     TIP3     OH2      OT      -0.834000       15.9994           0
     33219 TIP3     5290     TIP3     H1       HT       0.417000       1.00800           0
     33220 TIP3     5290     TIP3     H2       HT       0.417000       1.00800           0
     33221 TIP3     5291     TIP3     OH2      OT      -0.834000       15.9994           0
     33222 TIP3     5291     TIP3     H1       HT       0.417000       1.00800           0
     33223 TIP3     5291     TIP3     H2       HT       0.417000       1.00800           0
     33224 TIP3     5292     TIP3     OH2      OT      -0.834000       15.9994           0
     33225 TIP3     5292     TIP3     H1       HT       0.417000       1.00800           0
     33226 TIP3     5292     TIP3     H2       HT       0.417000       1.00800           0
     33227 TIP3     5293     TIP3     OH2      OT      -0.834000       15.9994           0
     33228 TIP3     5293     TIP3     H1       HT       0.417000       1.00800           0
     33229 TIP3     5293     TIP3     H2       HT       0.417000       1.00800           0
     33230 TIP3     5294     TIP3     OH2      OT      -0.834000       15.9994           0
     33231 TIP3     5294     TIP3     H1       HT       0.417000       1.00800           0
     33232 TIP3     5294     TIP3     H2       HT       0.417000       1.00800           0
     33233 TIP3     5295     TIP3     OH2      OT      -0.834000       15.9994           0
     33234 TIP3     5295     TIP3     H1       HT       0.417000       1.00800           0
     33235 TIP3     5295     TIP3     H2       HT       0.417000       1.00800           0
     33236 TIP3     5296     TIP3     OH2      OT      -0.834000       15.9994           0
     33237 TIP3     5296     TIP3     H1       HT       0.417000       1.00800           0
     33238 TIP3     5296     TIP3     H2       HT       0.417000       1.00800           0
     33239 TIP3     5297     TIP3     OH2      OT      -0.834000       15.9994           0
     33240 TIP3     5297     TIP3     H1       HT       0.417000       1.00800           0
     33241 TIP3     5297     TIP3     H2       HT       0.417000       1.00800           0
     33242 TIP3     5298     TIP3     OH2      OT      -0.834000       15.9994           0
     33243 TIP3     5298     TIP3     H1       HT       0.417000       1.00800           0
     33244 TIP3     5298     TIP3     H2       HT       0.417000       1.00800           0
     33245 TIP3     5299     TIP3     OH2      OT      -0.834000       15.9994           0
     33246 TIP3     5299     TIP3     H1       HT       0.417000       1.00800           0
     33247 TIP3     5299     TIP3     H2       HT       0.417000       1.00800           0
     33248 TIP3     5300     TIP3     OH2      OT      -0.834000       15.9994           0
     33249 TIP3     5300     TIP3     H1       HT       0.417000       1.00800           0
     33250 TIP3     5300     TIP3     H2       HT       0.417000       1.00800           0
     33251 TIP3     5301     TIP3     OH2      OT      -0.834000       15.9994           0
     33252 TIP3     5301     TIP3     H1       HT       0.417000       1.00800           0
     33253 TIP3     5301     TIP3     H2       HT       0.417000       1.00800           0
     33254 TIP3     5302     TIP3     OH2      OT      -0.834000       15.9994           0
     33255 TIP3     5302     TIP3     H1       HT       0.417000       1.00800           0
     33256 TIP3     5302     TIP3     H2       HT       0.417000       1.00800           0
     33257 TIP3     5303     TIP3     OH2      OT      -0.834000       15.9994           0
     33258 TIP3     5303     TIP3     H1       HT       0.417000       1.00800           0
     33259 TIP3     5303     TIP3     H2       HT       0.417000       1.00800           0
     33260 TIP3     5304     TIP3     OH2      OT      -0.834000       15.9994           0
     33261 TIP3     5304     TIP3     H1       HT       0.417000       1.00800           0
     33262 TIP3     5304     TIP3     H2       HT       0.417000       1.00800           0
     33263 TIP3     5305     TIP3     OH2      OT      -0.834000       15.9994           0
     33264 TIP3     5305     TIP3     H1       HT       0.417000       1.00800           0
     33265 TIP3     5305     TIP3     H2       HT       0.417000       1.00800           0
     33266 TIP3     5306     TIP3     OH2      OT      -0.834000       15.9994           0
     33267 TIP3     5306     TIP3     H1       HT       0.417000       1.00800           0
     33268 TIP3     5306     TIP3     H2       HT       0.417000       1.00800           0
     33269 TIP3     5307     TIP3     OH2      OT      -0.834000       15.9994           0
     33270 TIP3     5307     TIP3     H1       HT       0.417000       1.00800           0
     33271 TIP3     5307     TIP3     H2       HT       0.417000       1.00800           0
     33272 TIP3     5308     TIP3     OH2      OT      -0.834000       15.9994           0
     33273 TIP3     5308     TIP3     H1       HT       0.417000       1.00800           0
     33274 TIP3     5308     TIP3     H2       HT       0.417000       1.00800           0
     33275 TIP3     5309     TIP3     OH2      OT      -0.834000       15.9994           0
     33276 TIP3     5309     TIP3     H1       HT       0.417000       1.00800           0
     33277 TIP3     5309     TIP3     H2       HT       0.417000       1.00800           0
     33278 TIP3     5310     TIP3     OH2      OT      -0.834000       15.9994           0
     33279 TIP3     5310     TIP3     H1       HT       0.417000       1.00800           0
     33280 TIP3     5310     TIP3     H2       HT       0.417000       1.00800           0
     33281 TIP3     5311     TIP3     OH2      OT      -0.834000       15.9994           0
     33282 TIP3     5311     TIP3     H1       HT       0.417000       1.00800           0
     33283 TIP3     5311     TIP3     H2       HT       0.417000       1.00800           0
     33284 TIP3     5312     TIP3     OH2      OT      -0.834000       15.9994           0
     33285 TIP3     5312     TIP3     H1       HT       0.417000       1.00800           0
     33286 TIP3     5312     TIP3     H2       HT       0.417000       1.00800           0
     33287 TIP3     5313     TIP3     OH2      OT      -0.834000       15.9994           0
     33288 TIP3     5313     TIP3     H1       HT       0.417000       1.00800           0
     33289 TIP3     5313     TIP3     H2       HT       0.417000       1.00800           0
     33290 TIP3     5314     TIP3     OH2      OT      -0.834000       15.9994           0
     33291 TIP3     5314     TIP3     H1       HT       0.417000       1.00800           0
     33292 TIP3     5314     TIP3     H2       HT       0.417000       1.00800           0
     33293 TIP3     5315     TIP3     OH2      OT      -0.834000       15.9994           0
     33294 TIP3     5315     TIP3     H1       HT       0.417000       1.00800           0
     33295 TIP3     5315     TIP3     H2       HT       0.417000       1.00800           0
     33296 TIP3     5316     TIP3     OH2      OT      -0.834000       15.9994           0
     33297 TIP3     5316     TIP3     H1       HT       0.417000       1.00800           0
     33298 TIP3     5316     TIP3     H2       HT       0.417000       1.00800           0
     33299 TIP3     5317     TIP3     OH2      OT      -0.834000       15.9994           0
     33300 TIP3     5317     TIP3     H1       HT       0.417000       1.00800           0
     33301 TIP3     5317     TIP3     H2       HT       0.417000       1.00800           0
     33302 TIP3     5318     TIP3     OH2      OT      -0.834000       15.9994           0
     33303 TIP3     5318     TIP3     H1       HT       0.417000       1.00800           0
     33304 TIP3     5318     TIP3     H2       HT       0.417000       1.00800           0
     33305 TIP3     5319     TIP3     OH2      OT      -0.834000       15.9994           0
     33306 TIP3     5319     TIP3     H1       HT       0.417000       1.00800           0
     33307 TIP3     5319     TIP3     H2       HT       0.417000       1.00800           0
     33308 TIP3     5320     TIP3     OH2      OT      -0.834000       15.9994           0
     33309 TIP3     5320     TIP3     H1       HT       0.417000       1.00800           0
     33310 TIP3     5320     TIP3     H2       HT       0.417000       1.00800           0
     33311 TIP3     5321     TIP3     OH2      OT      -0.834000       15.9994           0
     33312 TIP3     5321     TIP3     H1       HT       0.417000       1.00800           0
     33313 TIP3     5321     TIP3     H2       HT       0.417000       1.00800           0
     33314 TIP3     5322     TIP3     OH2      OT      -0.834000       15.9994           0
     33315 TIP3     5322     TIP3     H1       HT       0.417000       1.00800           0
     33316 TIP3     5322     TIP3     H2       HT       0.417000       1.00800           0
     33317 TIP3     5323     TIP3     OH2      OT      -0.834000       15.9994           0
     33318 TIP3     5323     TIP3     H1       HT       0.417000       1.00800           0
     33319 TIP3     5323     TIP3     H2       HT       0.417000       1.00800           0
     33320 TIP3     5324     TIP3     OH2      OT      -0.834000       15.9994           0
     33321 TIP3     5324     TIP3     H1       HT       0.417000       1.00800           0
     33322 TIP3     5324     TIP3     H2       HT       0.417000       1.00800           0
     33323 TIP3     5325     TIP3     OH2      OT      -0.834000       15.9994           0
     33324 TIP3     5325     TIP3     H1       HT       0.417000       1.00800           0
     33325 TIP3     5325     TIP3     H2       HT       0.417000       1.00800           0
     33326 TIP3     5326     TIP3     OH2      OT      -0.834000       15.9994           0
     33327 TIP3     5326     TIP3     H1       HT       0.417000       1.00800           0
     33328 TIP3     5326     TIP3     H2       HT       0.417000       1.00800           0
     33329 TIP3     5327     TIP3     OH2      OT      -0.834000       15.9994           0
     33330 TIP3     5327     TIP3     H1       HT       0.417000       1.00800           0
     33331 TIP3     5327     TIP3     H2       HT       0.417000       1.00800           0
     33332 TIP3     5328     TIP3     OH2      OT      -0.834000       15.9994           0
     33333 TIP3     5328     TIP3     H1       HT       0.417000       1.00800           0
     33334 TIP3     5328     TIP3     H2       HT       0.417000       1.00800           0
     33335 TIP3     5329     TIP3     OH2      OT      -0.834000       15.9994           0
     33336 TIP3     5329     TIP3     H1       HT       0.417000       1.00800           0
     33337 TIP3     5329     TIP3     H2       HT       0.417000       1.00800           0
     33338 TIP3     5330     TIP3     OH2      OT      -0.834000       15.9994           0
     33339 TIP3     5330     TIP3     H1       HT       0.417000       1.00800           0
     33340 TIP3     5330     TIP3     H2       HT       0.417000       1.00800           0
     33341 TIP3     5331     TIP3     OH2      OT      -0.834000       15.9994           0
     33342 TIP3     5331     TIP3     H1       HT       0.417000       1.00800           0
     33343 TIP3     5331     TIP3     H2       HT       0.417000       1.00800           0
     33344 TIP3     5332     TIP3     OH2      OT      -0.834000       15.9994           0
     33345 TIP3     5332     TIP3     H1       HT       0.417000       1.00800           0
     33346 TIP3     5332     TIP3     H2       HT       0.417000       1.00800           0
     33347 TIP3     5333     TIP3     OH2      OT      -0.834000       15.9994           0
     33348 TIP3     5333     TIP3     H1       HT       0.417000       1.00800           0
     33349 TIP3     5333     TIP3     H2       HT       0.417000       1.00800           0
     33350 TIP3     5334     TIP3     OH2      OT      -0.834000       15.9994           0
     33351 TIP3     5334     TIP3     H1       HT       0.417000       1.00800           0
     33352 TIP3     5334     TIP3     H2       HT       0.417000       1.00800           0
     33353 TIP3     5335     TIP3     OH2      OT      -0.834000       15.9994           0
     33354 TIP3     5335     TIP3     H1       HT       0.417000       1.00800           0
     33355 TIP3     5335     TIP3     H2       HT       0.417000       1.00800           0
     33356 TIP3     5336     TIP3     OH2      OT      -0.834000       15.9994           0
     33357 TIP3     5336     TIP3     H1       HT       0.417000       1.00800           0
     33358 TIP3     5336     TIP3     H2       HT       0.417000       1.00800           0
     33359 TIP3     5337     TIP3     OH2      OT      -0.834000       15.9994           0
     33360 TIP3     5337     TIP3     H1       HT       0.417000       1.00800           0
     33361 TIP3     5337     TIP3     H2       HT       0.417000       1.00800           0
     33362 TIP3     5338     TIP3     OH2      OT      -0.834000       15.9994           0
     33363 TIP3     5338     TIP3     H1       HT       0.417000       1.00800           0
     33364 TIP3     5338     TIP3     H2       HT       0.417000       1.00800           0
     33365 TIP3     5339     TIP3     OH2      OT      -0.834000       15.9994           0
     33366 TIP3     5339     TIP3     H1       HT       0.417000       1.00800           0
     33367 TIP3     5339     TIP3     H2       HT       0.417000       1.00800           0
     33368 TIP3     5340     TIP3     OH2      OT      -0.834000       15.9994           0
     33369 TIP3     5340     TIP3     H1       HT       0.417000       1.00800           0
     33370 TIP3     5340     TIP3     H2       HT       0.417000       1.00800           0
     33371 TIP3     5341     TIP3     OH2      OT      -0.834000       15.9994           0
     33372 TIP3     5341     TIP3     H1       HT       0.417000       1.00800           0
     33373 TIP3     5341     TIP3     H2       HT       0.417000       1.00800           0
     33374 TIP3     5342     TIP3     OH2      OT      -0.834000       15.9994           0
     33375 TIP3     5342     TIP3     H1       HT       0.417000       1.00800           0
     33376 TIP3     5342     TIP3     H2       HT       0.417000       1.00800           0
     33377 TIP3     5343     TIP3     OH2      OT      -0.834000       15.9994           0
     33378 TIP3     5343     TIP3     H1       HT       0.417000       1.00800           0
     33379 TIP3     5343     TIP3     H2       HT       0.417000       1.00800           0
     33380 TIP3     5344     TIP3     OH2      OT      -0.834000       15.9994           0
     33381 TIP3     5344     TIP3     H1       HT       0.417000       1.00800           0
     33382 TIP3     5344     TIP3     H2       HT       0.417000       1.00800           0
     33383 TIP3     5345     TIP3     OH2      OT      -0.834000       15.9994           0
     33384 TIP3     5345     TIP3     H1       HT       0.417000       1.00800           0
     33385 TIP3     5345     TIP3     H2       HT       0.417000       1.00800           0
     33386 TIP3     5346     TIP3     OH2      OT      -0.834000       15.9994           0
     33387 TIP3     5346     TIP3     H1       HT       0.417000       1.00800           0
     33388 TIP3     5346     TIP3     H2       HT       0.417000       1.00800           0
     33389 TIP3     5347     TIP3     OH2      OT      -0.834000       15.9994           0
     33390 TIP3     5347     TIP3     H1       HT       0.417000       1.00800           0
     33391 TIP3     5347     TIP3     H2       HT       0.417000       1.00800           0
     33392 TIP3     5348     TIP3     OH2      OT      -0.834000       15.9994           0
     33393 TIP3     5348     TIP3     H1       HT       0.417000       1.00800           0
     33394 TIP3     5348     TIP3     H2       HT       0.417000       1.00800           0
     33395 TIP3     5349     TIP3     OH2      OT      -0.834000       15.9994           0
     33396 TIP3     5349     TIP3     H1       HT       0.417000       1.00800           0
     33397 TIP3     5349     TIP3     H2       HT       0.417000       1.00800           0
     33398 TIP3     5350     TIP3     OH2      OT      -0.834000       15.9994           0
     33399 TIP3     5350     TIP3     H1       HT       0.417000       1.00800           0
     33400 TIP3     5350     TIP3     H2       HT       0.417000       1.00800           0
     33401 TIP3     5351     TIP3     OH2      OT      -0.834000       15.9994           0
     33402 TIP3     5351     TIP3     H1       HT       0.417000       1.00800           0
     33403 TIP3     5351     TIP3     H2       HT       0.417000       1.00800           0
     33404 TIP3     5352     TIP3     OH2      OT      -0.834000       15.9994           0
     33405 TIP3     5352     TIP3     H1       HT       0.417000       1.00800           0
     33406 TIP3     5352     TIP3     H2       HT       0.417000       1.00800           0
     33407 TIP3     5353     TIP3     OH2      OT      -0.834000       15.9994           0
     33408 TIP3     5353     TIP3     H1       HT       0.417000       1.00800           0
     33409 TIP3     5353     TIP3     H2       HT       0.417000       1.00800           0
     33410 TIP3     5354     TIP3     OH2      OT      -0.834000       15.9994           0
     33411 TIP3     5354     TIP3     H1       HT       0.417000       1.00800           0
     33412 TIP3     5354     TIP3     H2       HT       0.417000       1.00800           0
     33413 TIP3     5355     TIP3     OH2      OT      -0.834000       15.9994           0
     33414 TIP3     5355     TIP3     H1       HT       0.417000       1.00800           0
     33415 TIP3     5355     TIP3     H2       HT       0.417000       1.00800           0
     33416 TIP3     5356     TIP3     OH2      OT      -0.834000       15.9994           0
     33417 TIP3     5356     TIP3     H1       HT       0.417000       1.00800           0
     33418 TIP3     5356     TIP3     H2       HT       0.417000       1.00800           0
     33419 TIP3     5357     TIP3     OH2      OT      -0.834000       15.9994           0
     33420 TIP3     5357     TIP3     H1       HT       0.417000       1.00800           0
     33421 TIP3     5357     TIP3     H2       HT       0.417000       1.00800           0
     33422 TIP3     5358     TIP3     OH2      OT      -0.834000       15.9994           0
     33423 TIP3     5358     TIP3     H1       HT       0.417000       1.00800           0
     33424 TIP3     5358     TIP3     H2       HT       0.417000       1.00800           0
     33425 TIP3     5359     TIP3     OH2      OT      -0.834000       15.9994           0
     33426 TIP3     5359     TIP3     H1       HT       0.417000       1.00800           0
     33427 TIP3     5359     TIP3     H2       HT       0.417000       1.00800           0
     33428 TIP3     5360     TIP3     OH2      OT      -0.834000       15.9994           0
     33429 TIP3     5360     TIP3     H1       HT       0.417000       1.00800           0
     33430 TIP3     5360     TIP3     H2       HT       0.417000       1.00800           0
     33431 TIP3     5361     TIP3     OH2      OT      -0.834000       15.9994           0
     33432 TIP3     5361     TIP3     H1       HT       0.417000       1.00800           0
     33433 TIP3     5361     TIP3     H2       HT       0.417000       1.00800           0
     33434 TIP3     5362     TIP3     OH2      OT      -0.834000       15.9994           0
     33435 TIP3     5362     TIP3     H1       HT       0.417000       1.00800           0
     33436 TIP3     5362     TIP3     H2       HT       0.417000       1.00800           0
     33437 TIP3     5363     TIP3     OH2      OT      -0.834000       15.9994           0
     33438 TIP3     5363     TIP3     H1       HT       0.417000       1.00800           0
     33439 TIP3     5363     TIP3     H2       HT       0.417000       1.00800           0
     33440 TIP3     5364     TIP3     OH2      OT      -0.834000       15.9994           0
     33441 TIP3     5364     TIP3     H1       HT       0.417000       1.00800           0
     33442 TIP3     5364     TIP3     H2       HT       0.417000       1.00800           0
     33443 TIP3     5365     TIP3     OH2      OT      -0.834000       15.9994           0
     33444 TIP3     5365     TIP3     H1       HT       0.417000       1.00800           0
     33445 TIP3     5365     TIP3     H2       HT       0.417000       1.00800           0
     33446 TIP3     5366     TIP3     OH2      OT      -0.834000       15.9994           0
     33447 TIP3     5366     TIP3     H1       HT       0.417000       1.00800           0
     33448 TIP3     5366     TIP3     H2       HT       0.417000       1.00800           0
     33449 TIP3     5367     TIP3     OH2      OT      -0.834000       15.9994           0
     33450 TIP3     5367     TIP3     H1       HT       0.417000       1.00800           0
     33451 TIP3     5367     TIP3     H2       HT       0.417000       1.00800           0
     33452 TIP3     5368     TIP3     OH2      OT      -0.834000       15.9994           0
     33453 TIP3     5368     TIP3     H1       HT       0.417000       1.00800           0
     33454 TIP3     5368     TIP3     H2       HT       0.417000       1.00800           0
     33455 TIP3     5369     TIP3     OH2      OT      -0.834000       15.9994           0
     33456 TIP3     5369     TIP3     H1       HT       0.417000       1.00800           0
     33457 TIP3     5369     TIP3     H2       HT       0.417000       1.00800           0
     33458 TIP3     5370     TIP3     OH2      OT      -0.834000       15.9994           0
     33459 TIP3     5370     TIP3     H1       HT       0.417000       1.00800           0
     33460 TIP3     5370     TIP3     H2       HT       0.417000       1.00800           0
     33461 TIP3     5371     TIP3     OH2      OT      -0.834000       15.9994           0
     33462 TIP3     5371     TIP3     H1       HT       0.417000       1.00800           0
     33463 TIP3     5371     TIP3     H2       HT       0.417000       1.00800           0
     33464 TIP3     5372     TIP3     OH2      OT      -0.834000       15.9994           0
     33465 TIP3     5372     TIP3     H1       HT       0.417000       1.00800           0
     33466 TIP3     5372     TIP3     H2       HT       0.417000       1.00800           0
     33467 TIP3     5373     TIP3     OH2      OT      -0.834000       15.9994           0
     33468 TIP3     5373     TIP3     H1       HT       0.417000       1.00800           0
     33469 TIP3     5373     TIP3     H2       HT       0.417000       1.00800           0
     33470 TIP3     5374     TIP3     OH2      OT      -0.834000       15.9994           0
     33471 TIP3     5374     TIP3     H1       HT       0.417000       1.00800           0
     33472 TIP3     5374     TIP3     H2       HT       0.417000       1.00800           0
     33473 TIP3     5375     TIP3     OH2      OT      -0.834000       15.9994           0
     33474 TIP3     5375     TIP3     H1       HT       0.417000       1.00800           0
     33475 TIP3     5375     TIP3     H2       HT       0.417000       1.00800           0
     33476 TIP3     5376     TIP3     OH2      OT      -0.834000       15.9994           0
     33477 TIP3     5376     TIP3     H1       HT       0.417000       1.00800           0
     33478 TIP3     5376     TIP3     H2       HT       0.417000       1.00800           0
     33479 TIP3     5377     TIP3     OH2      OT      -0.834000       15.9994           0
     33480 TIP3     5377     TIP3     H1       HT       0.417000       1.00800           0
     33481 TIP3     5377     TIP3     H2       HT       0.417000       1.00800           0
     33482 TIP3     5378     TIP3     OH2      OT      -0.834000       15.9994           0
     33483 TIP3     5378     TIP3     H1       HT       0.417000       1.00800           0
     33484 TIP3     5378     TIP3     H2       HT       0.417000       1.00800           0
     33485 TIP3     5379     TIP3     OH2      OT      -0.834000       15.9994           0
     33486 TIP3     5379     TIP3     H1       HT       0.417000       1.00800           0
     33487 TIP3     5379     TIP3     H2       HT       0.417000       1.00800           0
     33488 TIP3     5380     TIP3     OH2      OT      -0.834000       15.9994           0
     33489 TIP3     5380     TIP3     H1       HT       0.417000       1.00800           0
     33490 TIP3     5380     TIP3     H2       HT       0.417000       1.00800           0
     33491 TIP3     5381     TIP3     OH2      OT      -0.834000       15.9994           0
     33492 TIP3     5381     TIP3     H1       HT       0.417000       1.00800           0
     33493 TIP3     5381     TIP3     H2       HT       0.417000       1.00800           0
     33494 TIP3     5382     TIP3     OH2      OT      -0.834000       15.9994           0
     33495 TIP3     5382     TIP3     H1       HT       0.417000       1.00800           0
     33496 TIP3     5382     TIP3     H2       HT       0.417000       1.00800           0
     33497 TIP3     5383     TIP3     OH2      OT      -0.834000       15.9994           0
     33498 TIP3     5383     TIP3     H1       HT       0.417000       1.00800           0
     33499 TIP3     5383     TIP3     H2       HT       0.417000       1.00800           0
     33500 TIP3     5384     TIP3     OH2      OT      -0.834000       15.9994           0
     33501 TIP3     5384     TIP3     H1       HT       0.417000       1.00800           0
     33502 TIP3     5384     TIP3     H2       HT       0.417000       1.00800           0
     33503 TIP3     5385     TIP3     OH2      OT      -0.834000       15.9994           0
     33504 TIP3     5385     TIP3     H1       HT       0.417000       1.00800           0
     33505 TIP3     5385     TIP3     H2       HT       0.417000       1.00800           0
     33506 TIP3     5386     TIP3     OH2      OT      -0.834000       15.9994           0
     33507 TIP3     5386     TIP3     H1       HT       0.417000       1.00800           0
     33508 TIP3     5386     TIP3     H2       HT       0.417000       1.00800           0
     33509 TIP3     5387     TIP3     OH2      OT      -0.834000       15.9994           0
     33510 TIP3     5387     TIP3     H1       HT       0.417000       1.00800           0
     33511 TIP3     5387     TIP3     H2       HT       0.417000       1.00800           0
     33512 TIP3     5388     TIP3     OH2      OT      -0.834000       15.9994           0
     33513 TIP3     5388     TIP3     H1       HT       0.417000       1.00800           0
     33514 TIP3     5388     TIP3     H2       HT       0.417000       1.00800           0
     33515 TIP3     5389     TIP3     OH2      OT      -0.834000       15.9994           0
     33516 TIP3     5389     TIP3     H1       HT       0.417000       1.00800           0
     33517 TIP3     5389     TIP3     H2       HT       0.417000       1.00800           0
     33518 TIP3     5390     TIP3     OH2      OT      -0.834000       15.9994           0
     33519 TIP3     5390     TIP3     H1       HT       0.417000       1.00800           0
     33520 TIP3     5390     TIP3     H2       HT       0.417000       1.00800           0
     33521 TIP3     5391     TIP3     OH2      OT      -0.834000       15.9994           0
     33522 TIP3     5391     TIP3     H1       HT       0.417000       1.00800           0
     33523 TIP3     5391     TIP3     H2       HT       0.417000       1.00800           0
     33524 TIP3     5392     TIP3     OH2      OT      -0.834000       15.9994           0
     33525 TIP3     5392     TIP3     H1       HT       0.417000       1.00800           0
     33526 TIP3     5392     TIP3     H2       HT       0.417000       1.00800           0
     33527 TIP3     5393     TIP3     OH2      OT      -0.834000       15.9994           0
     33528 TIP3     5393     TIP3     H1       HT       0.417000       1.00800           0
     33529 TIP3     5393     TIP3     H2       HT       0.417000       1.00800           0
     33530 TIP3     5394     TIP3     OH2      OT      -0.834000       15.9994           0
     33531 TIP3     5394     TIP3     H1       HT       0.417000       1.00800           0
     33532 TIP3     5394     TIP3     H2       HT       0.417000       1.00800           0
     33533 TIP3     5395     TIP3     OH2      OT      -0.834000       15.9994           0
     33534 TIP3     5395     TIP3     H1       HT       0.417000       1.00800           0
     33535 TIP3     5395     TIP3     H2       HT       0.417000       1.00800           0
     33536 TIP3     5396     TIP3     OH2      OT      -0.834000       15.9994           0
     33537 TIP3     5396     TIP3     H1       HT       0.417000       1.00800           0
     33538 TIP3     5396     TIP3     H2       HT       0.417000       1.00800           0
     33539 TIP3     5397     TIP3     OH2      OT      -0.834000       15.9994           0
     33540 TIP3     5397     TIP3     H1       HT       0.417000       1.00800           0
     33541 TIP3     5397     TIP3     H2       HT       0.417000       1.00800           0
     33542 TIP3     5398     TIP3     OH2      OT      -0.834000       15.9994           0
     33543 TIP3     5398     TIP3     H1       HT       0.417000       1.00800           0
     33544 TIP3     5398     TIP3     H2       HT       0.417000       1.00800           0
     33545 TIP3     5399     TIP3     OH2      OT      -0.834000       15.9994           0
     33546 TIP3     5399     TIP3     H1       HT       0.417000       1.00800           0
     33547 TIP3     5399     TIP3     H2       HT       0.417000       1.00800           0
     33548 TIP3     5400     TIP3     OH2      OT      -0.834000       15.9994           0
     33549 TIP3     5400     TIP3     H1       HT       0.417000       1.00800           0
     33550 TIP3     5400     TIP3     H2       HT       0.417000       1.00800           0
     33551 TIP3     5401     TIP3     OH2      OT      -0.834000       15.9994           0
     33552 TIP3     5401     TIP3     H1       HT       0.417000       1.00800           0
     33553 TIP3     5401     TIP3     H2       HT       0.417000       1.00800           0
     33554 TIP3     5402     TIP3     OH2      OT      -0.834000       15.9994           0
     33555 TIP3     5402     TIP3     H1       HT       0.417000       1.00800           0
     33556 TIP3     5402     TIP3     H2       HT       0.417000       1.00800           0
     33557 TIP3     5403     TIP3     OH2      OT      -0.834000       15.9994           0
     33558 TIP3     5403     TIP3     H1       HT       0.417000       1.00800           0
     33559 TIP3     5403     TIP3     H2       HT       0.417000       1.00800           0
     33560 TIP3     5404     TIP3     OH2      OT      -0.834000       15.9994           0
     33561 TIP3     5404     TIP3     H1       HT       0.417000       1.00800           0
     33562 TIP3     5404     TIP3     H2       HT       0.417000       1.00800           0
     33563 TIP3     5405     TIP3     OH2      OT      -0.834000       15.9994           0
     33564 TIP3     5405     TIP3     H1       HT       0.417000       1.00800           0
     33565 TIP3     5405     TIP3     H2       HT       0.417000       1.00800           0
     33566 TIP3     5406     TIP3     OH2      OT      -0.834000       15.9994           0
     33567 TIP3     5406     TIP3     H1       HT       0.417000       1.00800           0
     33568 TIP3     5406     TIP3     H2       HT       0.417000       1.00800           0
     33569 TIP3     5407     TIP3     OH2      OT      -0.834000       15.9994           0
     33570 TIP3     5407     TIP3     H1       HT       0.417000       1.00800           0
     33571 TIP3     5407     TIP3     H2       HT       0.417000       1.00800           0
     33572 TIP3     5408     TIP3     OH2      OT      -0.834000       15.9994           0
     33573 TIP3     5408     TIP3     H1       HT       0.417000       1.00800           0
     33574 TIP3     5408     TIP3     H2       HT       0.417000       1.00800           0
     33575 TIP3     5409     TIP3     OH2      OT      -0.834000       15.9994           0
     33576 TIP3     5409     TIP3     H1       HT       0.417000       1.00800           0
     33577 TIP3     5409     TIP3     H2       HT       0.417000       1.00800           0
     33578 TIP3     5410     TIP3     OH2      OT      -0.834000       15.9994           0
     33579 TIP3     5410     TIP3     H1       HT       0.417000       1.00800           0
     33580 TIP3     5410     TIP3     H2       HT       0.417000       1.00800           0
     33581 TIP3     5411     TIP3     OH2      OT      -0.834000       15.9994           0
     33582 TIP3     5411     TIP3     H1       HT       0.417000       1.00800           0
     33583 TIP3     5411     TIP3     H2       HT       0.417000       1.00800           0
     33584 TIP3     5412     TIP3     OH2      OT      -0.834000       15.9994           0
     33585 TIP3     5412     TIP3     H1       HT       0.417000       1.00800           0
     33586 TIP3     5412     TIP3     H2       HT       0.417000       1.00800           0
     33587 TIP3     5413     TIP3     OH2      OT      -0.834000       15.9994           0
     33588 TIP3     5413     TIP3     H1       HT       0.417000       1.00800           0
     33589 TIP3     5413     TIP3     H2       HT       0.417000       1.00800           0
     33590 TIP3     5414     TIP3     OH2      OT      -0.834000       15.9994           0
     33591 TIP3     5414     TIP3     H1       HT       0.417000       1.00800           0
     33592 TIP3     5414     TIP3     H2       HT       0.417000       1.00800           0
     33593 TIP3     5415     TIP3     OH2      OT      -0.834000       15.9994           0
     33594 TIP3     5415     TIP3     H1       HT       0.417000       1.00800           0
     33595 TIP3     5415     TIP3     H2       HT       0.417000       1.00800           0
     33596 TIP3     5416     TIP3     OH2      OT      -0.834000       15.9994           0
     33597 TIP3     5416     TIP3     H1       HT       0.417000       1.00800           0
     33598 TIP3     5416     TIP3     H2       HT       0.417000       1.00800           0
     33599 TIP3     5417     TIP3     OH2      OT      -0.834000       15.9994           0
     33600 TIP3     5417     TIP3     H1       HT       0.417000       1.00800           0
     33601 TIP3     5417     TIP3     H2       HT       0.417000       1.00800           0
     33602 TIP3     5418     TIP3     OH2      OT      -0.834000       15.9994           0
     33603 TIP3     5418     TIP3     H1       HT       0.417000       1.00800           0
     33604 TIP3     5418     TIP3     H2       HT       0.417000       1.00800           0
     33605 TIP3     5419     TIP3     OH2      OT      -0.834000       15.9994           0
     33606 TIP3     5419     TIP3     H1       HT       0.417000       1.00800           0
     33607 TIP3     5419     TIP3     H2       HT       0.417000       1.00800           0
     33608 TIP3     5420     TIP3     OH2      OT      -0.834000       15.9994           0
     33609 TIP3     5420     TIP3     H1       HT       0.417000       1.00800           0
     33610 TIP3     5420     TIP3     H2       HT       0.417000       1.00800           0
     33611 TIP3     5421     TIP3     OH2      OT      -0.834000       15.9994           0
     33612 TIP3     5421     TIP3     H1       HT       0.417000       1.00800           0
     33613 TIP3     5421     TIP3     H2       HT       0.417000       1.00800           0
     33614 TIP3     5422     TIP3     OH2      OT      -0.834000       15.9994           0
     33615 TIP3     5422     TIP3     H1       HT       0.417000       1.00800           0
     33616 TIP3     5422     TIP3     H2       HT       0.417000       1.00800           0
     33617 TIP3     5423     TIP3     OH2      OT      -0.834000       15.9994           0
     33618 TIP3     5423     TIP3     H1       HT       0.417000       1.00800           0
     33619 TIP3     5423     TIP3     H2       HT       0.417000       1.00800           0
     33620 TIP3     5424     TIP3     OH2      OT      -0.834000       15.9994           0
     33621 TIP3     5424     TIP3     H1       HT       0.417000       1.00800           0
     33622 TIP3     5424     TIP3     H2       HT       0.417000       1.00800           0
     33623 TIP3     5425     TIP3     OH2      OT      -0.834000       15.9994           0
     33624 TIP3     5425     TIP3     H1       HT       0.417000       1.00800           0
     33625 TIP3     5425     TIP3     H2       HT       0.417000       1.00800           0
     33626 TIP3     5426     TIP3     OH2      OT      -0.834000       15.9994           0
     33627 TIP3     5426     TIP3     H1       HT       0.417000       1.00800           0
     33628 TIP3     5426     TIP3     H2       HT       0.417000       1.00800           0
     33629 TIP3     5427     TIP3     OH2      OT      -0.834000       15.9994           0
     33630 TIP3     5427     TIP3     H1       HT       0.417000       1.00800           0
     33631 TIP3     5427     TIP3     H2       HT       0.417000       1.00800           0
     33632 TIP3     5428     TIP3     OH2      OT      -0.834000       15.9994           0
     33633 TIP3     5428     TIP3     H1       HT       0.417000       1.00800           0
     33634 TIP3     5428     TIP3     H2       HT       0.417000       1.00800           0
     33635 TIP3     5429     TIP3     OH2      OT      -0.834000       15.9994           0
     33636 TIP3     5429     TIP3     H1       HT       0.417000       1.00800           0
     33637 TIP3     5429     TIP3     H2       HT       0.417000       1.00800           0
     33638 TIP3     5430     TIP3     OH2      OT      -0.834000       15.9994           0
     33639 TIP3     5430     TIP3     H1       HT       0.417000       1.00800           0
     33640 TIP3     5430     TIP3     H2       HT       0.417000       1.00800           0
     33641 TIP3     5431     TIP3     OH2      OT      -0.834000       15.9994           0
     33642 TIP3     5431     TIP3     H1       HT       0.417000       1.00800           0
     33643 TIP3     5431     TIP3     H2       HT       0.417000       1.00800           0
     33644 TIP3     5432     TIP3     OH2      OT      -0.834000       15.9994           0
     33645 TIP3     5432     TIP3     H1       HT       0.417000       1.00800           0
     33646 TIP3     5432     TIP3     H2       HT       0.417000       1.00800           0
     33647 TIP3     5433     TIP3     OH2      OT      -0.834000       15.9994           0
     33648 TIP3     5433     TIP3     H1       HT       0.417000       1.00800           0
     33649 TIP3     5433     TIP3     H2       HT       0.417000       1.00800           0
     33650 TIP3     5434     TIP3     OH2      OT      -0.834000       15.9994           0
     33651 TIP3     5434     TIP3     H1       HT       0.417000       1.00800           0
     33652 TIP3     5434     TIP3     H2       HT       0.417000       1.00800           0
     33653 TIP3     5435     TIP3     OH2      OT      -0.834000       15.9994           0
     33654 TIP3     5435     TIP3     H1       HT       0.417000       1.00800           0
     33655 TIP3     5435     TIP3     H2       HT       0.417000       1.00800           0
     33656 TIP3     5436     TIP3     OH2      OT      -0.834000       15.9994           0
     33657 TIP3     5436     TIP3     H1       HT       0.417000       1.00800           0
     33658 TIP3     5436     TIP3     H2       HT       0.417000       1.00800           0
     33659 TIP3     5437     TIP3     OH2      OT      -0.834000       15.9994           0
     33660 TIP3     5437     TIP3     H1       HT       0.417000       1.00800           0
     33661 TIP3     5437     TIP3     H2       HT       0.417000       1.00800           0
     33662 TIP3     5438     TIP3     OH2      OT      -0.834000       15.9994           0
     33663 TIP3     5438     TIP3     H1       HT       0.417000       1.00800           0
     33664 TIP3     5438     TIP3     H2       HT       0.417000       1.00800           0
     33665 TIP3     5439     TIP3     OH2      OT      -0.834000       15.9994           0
     33666 TIP3     5439     TIP3     H1       HT       0.417000       1.00800           0
     33667 TIP3     5439     TIP3     H2       HT       0.417000       1.00800           0
     33668 TIP3     5440     TIP3     OH2      OT      -0.834000       15.9994           0
     33669 TIP3     5440     TIP3     H1       HT       0.417000       1.00800           0
     33670 TIP3     5440     TIP3     H2       HT       0.417000       1.00800           0
     33671 TIP3     5441     TIP3     OH2      OT      -0.834000       15.9994           0
     33672 TIP3     5441     TIP3     H1       HT       0.417000       1.00800           0
     33673 TIP3     5441     TIP3     H2       HT       0.417000       1.00800           0
     33674 TIP3     5442     TIP3     OH2      OT      -0.834000       15.9994           0
     33675 TIP3     5442     TIP3     H1       HT       0.417000       1.00800           0
     33676 TIP3     5442     TIP3     H2       HT       0.417000       1.00800           0
     33677 TIP3     5443     TIP3     OH2      OT      -0.834000       15.9994           0
     33678 TIP3     5443     TIP3     H1       HT       0.417000       1.00800           0
     33679 TIP3     5443     TIP3     H2       HT       0.417000       1.00800           0
     33680 TIP3     5444     TIP3     OH2      OT      -0.834000       15.9994           0
     33681 TIP3     5444     TIP3     H1       HT       0.417000       1.00800           0
     33682 TIP3     5444     TIP3     H2       HT       0.417000       1.00800           0
     33683 TIP3     5445     TIP3     OH2      OT      -0.834000       15.9994           0
     33684 TIP3     5445     TIP3     H1       HT       0.417000       1.00800           0
     33685 TIP3     5445     TIP3     H2       HT       0.417000       1.00800           0
     33686 TIP3     5446     TIP3     OH2      OT      -0.834000       15.9994           0
     33687 TIP3     5446     TIP3     H1       HT       0.417000       1.00800           0
     33688 TIP3     5446     TIP3     H2       HT       0.417000       1.00800           0
     33689 TIP3     5447     TIP3     OH2      OT      -0.834000       15.9994           0
     33690 TIP3     5447     TIP3     H1       HT       0.417000       1.00800           0
     33691 TIP3     5447     TIP3     H2       HT       0.417000       1.00800           0
     33692 TIP3     5448     TIP3     OH2      OT      -0.834000       15.9994           0
     33693 TIP3     5448     TIP3     H1       HT       0.417000       1.00800           0
     33694 TIP3     5448     TIP3     H2       HT       0.417000       1.00800           0
     33695 TIP3     5449     TIP3     OH2      OT      -0.834000       15.9994           0
     33696 TIP3     5449     TIP3     H1       HT       0.417000       1.00800           0
     33697 TIP3     5449     TIP3     H2       HT       0.417000       1.00800           0
     33698 TIP3     5450     TIP3     OH2      OT      -0.834000       15.9994           0
     33699 TIP3     5450     TIP3     H1       HT       0.417000       1.00800           0
     33700 TIP3     5450     TIP3     H2       HT       0.417000       1.00800           0
     33701 TIP3     5451     TIP3     OH2      OT      -0.834000       15.9994           0
     33702 TIP3     5451     TIP3     H1       HT       0.417000       1.00800           0
     33703 TIP3     5451     TIP3     H2       HT       0.417000       1.00800           0
     33704 TIP3     5452     TIP3     OH2      OT      -0.834000       15.9994           0
     33705 TIP3     5452     TIP3     H1       HT       0.417000       1.00800           0
     33706 TIP3     5452     TIP3     H2       HT       0.417000       1.00800           0
     33707 TIP3     5453     TIP3     OH2      OT      -0.834000       15.9994           0
     33708 TIP3     5453     TIP3     H1       HT       0.417000       1.00800           0
     33709 TIP3     5453     TIP3     H2       HT       0.417000       1.00800           0
     33710 TIP3     5454     TIP3     OH2      OT      -0.834000       15.9994           0
     33711 TIP3     5454     TIP3     H1       HT       0.417000       1.00800           0
     33712 TIP3     5454     TIP3     H2       HT       0.417000       1.00800           0
     33713 TIP3     5455     TIP3     OH2      OT      -0.834000       15.9994           0
     33714 TIP3     5455     TIP3     H1       HT       0.417000       1.00800           0
     33715 TIP3     5455     TIP3     H2       HT       0.417000       1.00800           0
     33716 TIP3     5456     TIP3     OH2      OT      -0.834000       15.9994           0
     33717 TIP3     5456     TIP3     H1       HT       0.417000       1.00800           0
     33718 TIP3     5456     TIP3     H2       HT       0.417000       1.00800           0
     33719 TIP3     5457     TIP3     OH2      OT      -0.834000       15.9994           0
     33720 TIP3     5457     TIP3     H1       HT       0.417000       1.00800           0
     33721 TIP3     5457     TIP3     H2       HT       0.417000       1.00800           0
     33722 TIP3     5458     TIP3     OH2      OT      -0.834000       15.9994           0
     33723 TIP3     5458     TIP3     H1       HT       0.417000       1.00800           0
     33724 TIP3     5458     TIP3     H2       HT       0.417000       1.00800           0
     33725 TIP3     5459     TIP3     OH2      OT      -0.834000       15.9994           0
     33726 TIP3     5459     TIP3     H1       HT       0.417000       1.00800           0
     33727 TIP3     5459     TIP3     H2       HT       0.417000       1.00800           0
     33728 TIP3     5460     TIP3     OH2      OT      -0.834000       15.9994           0
     33729 TIP3     5460     TIP3     H1       HT       0.417000       1.00800           0
     33730 TIP3     5460     TIP3     H2       HT       0.417000       1.00800           0
     33731 TIP3     5461     TIP3     OH2      OT      -0.834000       15.9994           0
     33732 TIP3     5461     TIP3     H1       HT       0.417000       1.00800           0
     33733 TIP3     5461     TIP3     H2       HT       0.417000       1.00800           0
     33734 TIP3     5462     TIP3     OH2      OT      -0.834000       15.9994           0
     33735 TIP3     5462     TIP3     H1       HT       0.417000       1.00800           0
     33736 TIP3     5462     TIP3     H2       HT       0.417000       1.00800           0
     33737 TIP3     5463     TIP3     OH2      OT      -0.834000       15.9994           0
     33738 TIP3     5463     TIP3     H1       HT       0.417000       1.00800           0
     33739 TIP3     5463     TIP3     H2       HT       0.417000       1.00800           0
     33740 TIP3     5464     TIP3     OH2      OT      -0.834000       15.9994           0
     33741 TIP3     5464     TIP3     H1       HT       0.417000       1.00800           0
     33742 TIP3     5464     TIP3     H2       HT       0.417000       1.00800           0
     33743 TIP3     5465     TIP3     OH2      OT      -0.834000       15.9994           0
     33744 TIP3     5465     TIP3     H1       HT       0.417000       1.00800           0
     33745 TIP3     5465     TIP3     H2       HT       0.417000       1.00800           0
     33746 TIP3     5466     TIP3     OH2      OT      -0.834000       15.9994           0
     33747 TIP3     5466     TIP3     H1       HT       0.417000       1.00800           0
     33748 TIP3     5466     TIP3     H2       HT       0.417000       1.00800           0
     33749 TIP3     5467     TIP3     OH2      OT      -0.834000       15.9994           0
     33750 TIP3     5467     TIP3     H1       HT       0.417000       1.00800           0
     33751 TIP3     5467     TIP3     H2       HT       0.417000       1.00800           0
     33752 TIP3     5468     TIP3     OH2      OT      -0.834000       15.9994           0
     33753 TIP3     5468     TIP3     H1       HT       0.417000       1.00800           0
     33754 TIP3     5468     TIP3     H2       HT       0.417000       1.00800           0
     33755 TIP3     5469     TIP3     OH2      OT      -0.834000       15.9994           0
     33756 TIP3     5469     TIP3     H1       HT       0.417000       1.00800           0
     33757 TIP3     5469     TIP3     H2       HT       0.417000       1.00800           0
     33758 TIP3     5470     TIP3     OH2      OT      -0.834000       15.9994           0
     33759 TIP3     5470     TIP3     H1       HT       0.417000       1.00800           0
     33760 TIP3     5470     TIP3     H2       HT       0.417000       1.00800           0
     33761 TIP3     5471     TIP3     OH2      OT      -0.834000       15.9994           0
     33762 TIP3     5471     TIP3     H1       HT       0.417000       1.00800           0
     33763 TIP3     5471     TIP3     H2       HT       0.417000       1.00800           0
     33764 TIP3     5472     TIP3     OH2      OT      -0.834000       15.9994           0
     33765 TIP3     5472     TIP3     H1       HT       0.417000       1.00800           0
     33766 TIP3     5472     TIP3     H2       HT       0.417000       1.00800           0
     33767 TIP3     5473     TIP3     OH2      OT      -0.834000       15.9994           0
     33768 TIP3     5473     TIP3     H1       HT       0.417000       1.00800           0
     33769 TIP3     5473     TIP3     H2       HT       0.417000       1.00800           0
     33770 TIP3     5474     TIP3     OH2      OT      -0.834000       15.9994           0
     33771 TIP3     5474     TIP3     H1       HT       0.417000       1.00800           0
     33772 TIP3     5474     TIP3     H2       HT       0.417000       1.00800           0
     33773 TIP3     5475     TIP3     OH2      OT      -0.834000       15.9994           0
     33774 TIP3     5475     TIP3     H1       HT       0.417000       1.00800           0
     33775 TIP3     5475     TIP3     H2       HT       0.417000       1.00800           0
     33776 TIP3     5476     TIP3     OH2      OT      -0.834000       15.9994           0
     33777 TIP3     5476     TIP3     H1       HT       0.417000       1.00800           0
     33778 TIP3     5476     TIP3     H2       HT       0.417000       1.00800           0
     33779 TIP3     5477     TIP3     OH2      OT      -0.834000       15.9994           0
     33780 TIP3     5477     TIP3     H1       HT       0.417000       1.00800           0
     33781 TIP3     5477     TIP3     H2       HT       0.417000       1.00800           0
     33782 TIP3     5478     TIP3     OH2      OT      -0.834000       15.9994           0
     33783 TIP3     5478     TIP3     H1       HT       0.417000       1.00800           0
     33784 TIP3     5478     TIP3     H2       HT       0.417000       1.00800           0
     33785 TIP3     5479     TIP3     OH2      OT      -0.834000       15.9994           0
     33786 TIP3     5479     TIP3     H1       HT       0.417000       1.00800           0
     33787 TIP3     5479     TIP3     H2       HT       0.417000       1.00800           0
     33788 TIP3     5480     TIP3     OH2      OT      -0.834000       15.9994           0
     33789 TIP3     5480     TIP3     H1       HT       0.417000       1.00800           0
     33790 TIP3     5480     TIP3     H2       HT       0.417000       1.00800           0
     33791 TIP3     5481     TIP3     OH2      OT      -0.834000       15.9994           0
     33792 TIP3     5481     TIP3     H1       HT       0.417000       1.00800           0
     33793 TIP3     5481     TIP3     H2       HT       0.417000       1.00800           0
     33794 TIP3     5482     TIP3     OH2      OT      -0.834000       15.9994           0
     33795 TIP3     5482     TIP3     H1       HT       0.417000       1.00800           0
     33796 TIP3     5482     TIP3     H2       HT       0.417000       1.00800           0
     33797 TIP3     5483     TIP3     OH2      OT      -0.834000       15.9994           0
     33798 TIP3     5483     TIP3     H1       HT       0.417000       1.00800           0
     33799 TIP3     5483     TIP3     H2       HT       0.417000       1.00800           0
     33800 TIP3     5484     TIP3     OH2      OT      -0.834000       15.9994           0
     33801 TIP3     5484     TIP3     H1       HT       0.417000       1.00800           0
     33802 TIP3     5484     TIP3     H2       HT       0.417000       1.00800           0
     33803 TIP3     5485     TIP3     OH2      OT      -0.834000       15.9994           0
     33804 TIP3     5485     TIP3     H1       HT       0.417000       1.00800           0
     33805 TIP3     5485     TIP3     H2       HT       0.417000       1.00800           0
     33806 TIP3     5486     TIP3     OH2      OT      -0.834000       15.9994           0
     33807 TIP3     5486     TIP3     H1       HT       0.417000       1.00800           0
     33808 TIP3     5486     TIP3     H2       HT       0.417000       1.00800           0
     33809 TIP3     5487     TIP3     OH2      OT      -0.834000       15.9994           0
     33810 TIP3     5487     TIP3     H1       HT       0.417000       1.00800           0
     33811 TIP3     5487     TIP3     H2       HT       0.417000       1.00800           0
     33812 TIP3     5488     TIP3     OH2      OT      -0.834000       15.9994           0
     33813 TIP3     5488     TIP3     H1       HT       0.417000       1.00800           0
     33814 TIP3     5488     TIP3     H2       HT       0.417000       1.00800           0
     33815 TIP3     5489     TIP3     OH2      OT      -0.834000       15.9994           0
     33816 TIP3     5489     TIP3     H1       HT       0.417000       1.00800           0
     33817 TIP3     5489     TIP3     H2       HT       0.417000       1.00800           0
     33818 TIP3     5490     TIP3     OH2      OT      -0.834000       15.9994           0
     33819 TIP3     5490     TIP3     H1       HT       0.417000       1.00800           0
     33820 TIP3     5490     TIP3     H2       HT       0.417000       1.00800           0
     33821 TIP3     5491     TIP3     OH2      OT      -0.834000       15.9994           0
     33822 TIP3     5491     TIP3     H1       HT       0.417000       1.00800           0
     33823 TIP3     5491     TIP3     H2       HT       0.417000       1.00800           0
     33824 TIP3     5492     TIP3     OH2      OT      -0.834000       15.9994           0
     33825 TIP3     5492     TIP3     H1       HT       0.417000       1.00800           0
     33826 TIP3     5492     TIP3     H2       HT       0.417000       1.00800           0
     33827 TIP3     5493     TIP3     OH2      OT      -0.834000       15.9994           0
     33828 TIP3     5493     TIP3     H1       HT       0.417000       1.00800           0
     33829 TIP3     5493     TIP3     H2       HT       0.417000       1.00800           0
     33830 TIP3     5494     TIP3     OH2      OT      -0.834000       15.9994           0
     33831 TIP3     5494     TIP3     H1       HT       0.417000       1.00800           0
     33832 TIP3     5494     TIP3     H2       HT       0.417000       1.00800           0
     33833 TIP3     5495     TIP3     OH2      OT      -0.834000       15.9994           0
     33834 TIP3     5495     TIP3     H1       HT       0.417000       1.00800           0
     33835 TIP3     5495     TIP3     H2       HT       0.417000       1.00800           0
     33836 TIP3     5496     TIP3     OH2      OT      -0.834000       15.9994           0
     33837 TIP3     5496     TIP3     H1       HT       0.417000       1.00800           0
     33838 TIP3     5496     TIP3     H2       HT       0.417000       1.00800           0
     33839 TIP3     5497     TIP3     OH2      OT      -0.834000       15.9994           0
     33840 TIP3     5497     TIP3     H1       HT       0.417000       1.00800           0
     33841 TIP3     5497     TIP3     H2       HT       0.417000       1.00800           0
     33842 TIP3     5498     TIP3     OH2      OT      -0.834000       15.9994           0
     33843 TIP3     5498     TIP3     H1       HT       0.417000       1.00800           0
     33844 TIP3     5498     TIP3     H2       HT       0.417000       1.00800           0
     33845 TIP3     5499     TIP3     OH2      OT      -0.834000       15.9994           0
     33846 TIP3     5499     TIP3     H1       HT       0.417000       1.00800           0
     33847 TIP3     5499     TIP3     H2       HT       0.417000       1.00800           0
     33848 TIP3     5500     TIP3     OH2      OT      -0.834000       15.9994           0
     33849 TIP3     5500     TIP3     H1       HT       0.417000       1.00800           0
     33850 TIP3     5500     TIP3     H2       HT       0.417000       1.00800           0
     33851 TIP3     5501     TIP3     OH2      OT      -0.834000       15.9994           0
     33852 TIP3     5501     TIP3     H1       HT       0.417000       1.00800           0
     33853 TIP3     5501     TIP3     H2       HT       0.417000       1.00800           0
     33854 TIP3     5502     TIP3     OH2      OT      -0.834000       15.9994           0
     33855 TIP3     5502     TIP3     H1       HT       0.417000       1.00800           0
     33856 TIP3     5502     TIP3     H2       HT       0.417000       1.00800           0
     33857 TIP3     5503     TIP3     OH2      OT      -0.834000       15.9994           0
     33858 TIP3     5503     TIP3     H1       HT       0.417000       1.00800           0
     33859 TIP3     5503     TIP3     H2       HT       0.417000       1.00800           0
     33860 TIP3     5504     TIP3     OH2      OT      -0.834000       15.9994           0
     33861 TIP3     5504     TIP3     H1       HT       0.417000       1.00800           0
     33862 TIP3     5504     TIP3     H2       HT       0.417000       1.00800           0
     33863 TIP3     5505     TIP3     OH2      OT      -0.834000       15.9994           0
     33864 TIP3     5505     TIP3     H1       HT       0.417000       1.00800           0
     33865 TIP3     5505     TIP3     H2       HT       0.417000       1.00800           0
     33866 TIP3     5506     TIP3     OH2      OT      -0.834000       15.9994           0
     33867 TIP3     5506     TIP3     H1       HT       0.417000       1.00800           0
     33868 TIP3     5506     TIP3     H2       HT       0.417000       1.00800           0
     33869 TIP3     5507     TIP3     OH2      OT      -0.834000       15.9994           0
     33870 TIP3     5507     TIP3     H1       HT       0.417000       1.00800           0
     33871 TIP3     5507     TIP3     H2       HT       0.417000       1.00800           0
     33872 TIP3     5508     TIP3     OH2      OT      -0.834000       15.9994           0
     33873 TIP3     5508     TIP3     H1       HT       0.417000       1.00800           0
     33874 TIP3     5508     TIP3     H2       HT       0.417000       1.00800           0
     33875 TIP3     5509     TIP3     OH2      OT      -0.834000       15.9994           0
     33876 TIP3     5509     TIP3     H1       HT       0.417000       1.00800           0
     33877 TIP3     5509     TIP3     H2       HT       0.417000       1.00800           0
     33878 TIP3     5510     TIP3     OH2      OT      -0.834000       15.9994           0
     33879 TIP3     5510     TIP3     H1       HT       0.417000       1.00800           0
     33880 TIP3     5510     TIP3     H2       HT       0.417000       1.00800           0
     33881 TIP3     5511     TIP3     OH2      OT      -0.834000       15.9994           0
     33882 TIP3     5511     TIP3     H1       HT       0.417000       1.00800           0
     33883 TIP3     5511     TIP3     H2       HT       0.417000       1.00800           0
     33884 TIP3     5512     TIP3     OH2      OT      -0.834000       15.9994           0
     33885 TIP3     5512     TIP3     H1       HT       0.417000       1.00800           0
     33886 TIP3     5512     TIP3     H2       HT       0.417000       1.00800           0
     33887 TIP3     5513     TIP3     OH2      OT      -0.834000       15.9994           0
     33888 TIP3     5513     TIP3     H1       HT       0.417000       1.00800           0
     33889 TIP3     5513     TIP3     H2       HT       0.417000       1.00800           0
     33890 TIP3     5514     TIP3     OH2      OT      -0.834000       15.9994           0
     33891 TIP3     5514     TIP3     H1       HT       0.417000       1.00800           0
     33892 TIP3     5514     TIP3     H2       HT       0.417000       1.00800           0
     33893 TIP3     5515     TIP3     OH2      OT      -0.834000       15.9994           0
     33894 TIP3     5515     TIP3     H1       HT       0.417000       1.00800           0
     33895 TIP3     5515     TIP3     H2       HT       0.417000       1.00800           0
     33896 TIP3     5516     TIP3     OH2      OT      -0.834000       15.9994           0
     33897 TIP3     5516     TIP3     H1       HT       0.417000       1.00800           0
     33898 TIP3     5516     TIP3     H2       HT       0.417000       1.00800           0
     33899 TIP3     5517     TIP3     OH2      OT      -0.834000       15.9994           0
     33900 TIP3     5517     TIP3     H1       HT       0.417000       1.00800           0
     33901 TIP3     5517     TIP3     H2       HT       0.417000       1.00800           0
     33902 TIP3     5518     TIP3     OH2      OT      -0.834000       15.9994           0
     33903 TIP3     5518     TIP3     H1       HT       0.417000       1.00800           0
     33904 TIP3     5518     TIP3     H2       HT       0.417000       1.00800           0
     33905 TIP3     5519     TIP3     OH2      OT      -0.834000       15.9994           0
     33906 TIP3     5519     TIP3     H1       HT       0.417000       1.00800           0
     33907 TIP3     5519     TIP3     H2       HT       0.417000       1.00800           0
     33908 TIP3     5520     TIP3     OH2      OT      -0.834000       15.9994           0
     33909 TIP3     5520     TIP3     H1       HT       0.417000       1.00800           0
     33910 TIP3     5520     TIP3     H2       HT       0.417000       1.00800           0
     33911 TIP3     5521     TIP3     OH2      OT      -0.834000       15.9994           0
     33912 TIP3     5521     TIP3     H1       HT       0.417000       1.00800           0
     33913 TIP3     5521     TIP3     H2       HT       0.417000       1.00800           0
     33914 TIP3     5522     TIP3     OH2      OT      -0.834000       15.9994           0
     33915 TIP3     5522     TIP3     H1       HT       0.417000       1.00800           0
     33916 TIP3     5522     TIP3     H2       HT       0.417000       1.00800           0
     33917 TIP3     5523     TIP3     OH2      OT      -0.834000       15.9994           0
     33918 TIP3     5523     TIP3     H1       HT       0.417000       1.00800           0
     33919 TIP3     5523     TIP3     H2       HT       0.417000       1.00800           0
     33920 TIP3     5524     TIP3     OH2      OT      -0.834000       15.9994           0
     33921 TIP3     5524     TIP3     H1       HT       0.417000       1.00800           0
     33922 TIP3     5524     TIP3     H2       HT       0.417000       1.00800           0
     33923 TIP3     5525     TIP3     OH2      OT      -0.834000       15.9994           0
     33924 TIP3     5525     TIP3     H1       HT       0.417000       1.00800           0
     33925 TIP3     5525     TIP3     H2       HT       0.417000       1.00800           0
     33926 TIP3     5526     TIP3     OH2      OT      -0.834000       15.9994           0
     33927 TIP3     5526     TIP3     H1       HT       0.417000       1.00800           0
     33928 TIP3     5526     TIP3     H2       HT       0.417000       1.00800           0
     33929 TIP3     5527     TIP3     OH2      OT      -0.834000       15.9994           0
     33930 TIP3     5527     TIP3     H1       HT       0.417000       1.00800           0
     33931 TIP3     5527     TIP3     H2       HT       0.417000       1.00800           0
     33932 TIP3     5528     TIP3     OH2      OT      -0.834000       15.9994           0
     33933 TIP3     5528     TIP3     H1       HT       0.417000       1.00800           0
     33934 TIP3     5528     TIP3     H2       HT       0.417000       1.00800           0
     33935 TIP3     5529     TIP3     OH2      OT      -0.834000       15.9994           0
     33936 TIP3     5529     TIP3     H1       HT       0.417000       1.00800           0
     33937 TIP3     5529     TIP3     H2       HT       0.417000       1.00800           0
     33938 TIP3     5530     TIP3     OH2      OT      -0.834000       15.9994           0
     33939 TIP3     5530     TIP3     H1       HT       0.417000       1.00800           0
     33940 TIP3     5530     TIP3     H2       HT       0.417000       1.00800           0
     33941 TIP3     5531     TIP3     OH2      OT      -0.834000       15.9994           0
     33942 TIP3     5531     TIP3     H1       HT       0.417000       1.00800           0
     33943 TIP3     5531     TIP3     H2       HT       0.417000       1.00800           0
     33944 TIP3     5532     TIP3     OH2      OT      -0.834000       15.9994           0
     33945 TIP3     5532     TIP3     H1       HT       0.417000       1.00800           0
     33946 TIP3     5532     TIP3     H2       HT       0.417000       1.00800           0
     33947 TIP3     5533     TIP3     OH2      OT      -0.834000       15.9994           0
     33948 TIP3     5533     TIP3     H1       HT       0.417000       1.00800           0
     33949 TIP3     5533     TIP3     H2       HT       0.417000       1.00800           0
     33950 TIP3     5534     TIP3     OH2      OT      -0.834000       15.9994           0
     33951 TIP3     5534     TIP3     H1       HT       0.417000       1.00800           0
     33952 TIP3     5534     TIP3     H2       HT       0.417000       1.00800           0
     33953 TIP3     5535     TIP3     OH2      OT      -0.834000       15.9994           0
     33954 TIP3     5535     TIP3     H1       HT       0.417000       1.00800           0
     33955 TIP3     5535     TIP3     H2       HT       0.417000       1.00800           0
     33956 TIP3     5536     TIP3     OH2      OT      -0.834000       15.9994           0
     33957 TIP3     5536     TIP3     H1       HT       0.417000       1.00800           0
     33958 TIP3     5536     TIP3     H2       HT       0.417000       1.00800           0
     33959 TIP3     5537     TIP3     OH2      OT      -0.834000       15.9994           0
     33960 TIP3     5537     TIP3     H1       HT       0.417000       1.00800           0
     33961 TIP3     5537     TIP3     H2       HT       0.417000       1.00800           0
     33962 TIP3     5538     TIP3     OH2      OT      -0.834000       15.9994           0
     33963 TIP3     5538     TIP3     H1       HT       0.417000       1.00800           0
     33964 TIP3     5538     TIP3     H2       HT       0.417000       1.00800           0
     33965 TIP3     5539     TIP3     OH2      OT      -0.834000       15.9994           0
     33966 TIP3     5539     TIP3     H1       HT       0.417000       1.00800           0
     33967 TIP3     5539     TIP3     H2       HT       0.417000       1.00800           0
     33968 TIP3     5540     TIP3     OH2      OT      -0.834000       15.9994           0
     33969 TIP3     5540     TIP3     H1       HT       0.417000       1.00800           0
     33970 TIP3     5540     TIP3     H2       HT       0.417000       1.00800           0
     33971 TIP3     5541     TIP3     OH2      OT      -0.834000       15.9994           0
     33972 TIP3     5541     TIP3     H1       HT       0.417000       1.00800           0
     33973 TIP3     5541     TIP3     H2       HT       0.417000       1.00800           0
     33974 TIP3     5542     TIP3     OH2      OT      -0.834000       15.9994           0
     33975 TIP3     5542     TIP3     H1       HT       0.417000       1.00800           0
     33976 TIP3     5542     TIP3     H2       HT       0.417000       1.00800           0
     33977 TIP3     5543     TIP3     OH2      OT      -0.834000       15.9994           0
     33978 TIP3     5543     TIP3     H1       HT       0.417000       1.00800           0
     33979 TIP3     5543     TIP3     H2       HT       0.417000       1.00800           0
     33980 TIP3     5544     TIP3     OH2      OT      -0.834000       15.9994           0
     33981 TIP3     5544     TIP3     H1       HT       0.417000       1.00800           0
     33982 TIP3     5544     TIP3     H2       HT       0.417000       1.00800           0
     33983 TIP3     5545     TIP3     OH2      OT      -0.834000       15.9994           0
     33984 TIP3     5545     TIP3     H1       HT       0.417000       1.00800           0
     33985 TIP3     5545     TIP3     H2       HT       0.417000       1.00800           0
     33986 TIP3     5546     TIP3     OH2      OT      -0.834000       15.9994           0
     33987 TIP3     5546     TIP3     H1       HT       0.417000       1.00800           0
     33988 TIP3     5546     TIP3     H2       HT       0.417000       1.00800           0
     33989 TIP3     5547     TIP3     OH2      OT      -0.834000       15.9994           0
     33990 TIP3     5547     TIP3     H1       HT       0.417000       1.00800           0
     33991 TIP3     5547     TIP3     H2       HT       0.417000       1.00800           0
     33992 TIP3     5548     TIP3     OH2      OT      -0.834000       15.9994           0
     33993 TIP3     5548     TIP3     H1       HT       0.417000       1.00800           0
     33994 TIP3     5548     TIP3     H2       HT       0.417000       1.00800           0
     33995 TIP3     5549     TIP3     OH2      OT      -0.834000       15.9994           0
     33996 TIP3     5549     TIP3     H1       HT       0.417000       1.00800           0
     33997 TIP3     5549     TIP3     H2       HT       0.417000       1.00800           0
     33998 TIP3     5550     TIP3     OH2      OT      -0.834000       15.9994           0
     33999 TIP3     5550     TIP3     H1       HT       0.417000       1.00800           0
     34000 TIP3     5550     TIP3     H2       HT       0.417000       1.00800           0
     34001 TIP3     5551     TIP3     OH2      OT      -0.834000       15.9994           0
     34002 TIP3     5551     TIP3     H1       HT       0.417000       1.00800           0
     34003 TIP3     5551     TIP3     H2       HT       0.417000       1.00800           0
     34004 TIP3     5552     TIP3     OH2      OT      -0.834000       15.9994           0
     34005 TIP3     5552     TIP3     H1       HT       0.417000       1.00800           0
     34006 TIP3     5552     TIP3     H2       HT       0.417000       1.00800           0
     34007 TIP3     5553     TIP3     OH2      OT      -0.834000       15.9994           0
     34008 TIP3     5553     TIP3     H1       HT       0.417000       1.00800           0
     34009 TIP3     5553     TIP3     H2       HT       0.417000       1.00800           0
     34010 TIP3     5554     TIP3     OH2      OT      -0.834000       15.9994           0
     34011 TIP3     5554     TIP3     H1       HT       0.417000       1.00800           0
     34012 TIP3     5554     TIP3     H2       HT       0.417000       1.00800           0
     34013 TIP3     5555     TIP3     OH2      OT      -0.834000       15.9994           0
     34014 TIP3     5555     TIP3     H1       HT       0.417000       1.00800           0
     34015 TIP3     5555     TIP3     H2       HT       0.417000       1.00800           0
     34016 TIP3     5556     TIP3     OH2      OT      -0.834000       15.9994           0
     34017 TIP3     5556     TIP3     H1       HT       0.417000       1.00800           0
     34018 TIP3     5556     TIP3     H2       HT       0.417000       1.00800           0
     34019 TIP3     5557     TIP3     OH2      OT      -0.834000       15.9994           0
     34020 TIP3     5557     TIP3     H1       HT       0.417000       1.00800           0
     34021 TIP3     5557     TIP3     H2       HT       0.417000       1.00800           0
     34022 TIP3     5558     TIP3     OH2      OT      -0.834000       15.9994           0
     34023 TIP3     5558     TIP3     H1       HT       0.417000       1.00800           0
     34024 TIP3     5558     TIP3     H2       HT       0.417000       1.00800           0
     34025 TIP3     5559     TIP3     OH2      OT      -0.834000       15.9994           0
     34026 TIP3     5559     TIP3     H1       HT       0.417000       1.00800           0
     34027 TIP3     5559     TIP3     H2       HT       0.417000       1.00800           0
     34028 TIP3     5560     TIP3     OH2      OT      -0.834000       15.9994           0
     34029 TIP3     5560     TIP3     H1       HT       0.417000       1.00800           0
     34030 TIP3     5560     TIP3     H2       HT       0.417000       1.00800           0
     34031 TIP3     5561     TIP3     OH2      OT      -0.834000       15.9994           0
     34032 TIP3     5561     TIP3     H1       HT       0.417000       1.00800           0
     34033 TIP3     5561     TIP3     H2       HT       0.417000       1.00800           0
     34034 TIP3     5562     TIP3     OH2      OT      -0.834000       15.9994           0
     34035 TIP3     5562     TIP3     H1       HT       0.417000       1.00800           0
     34036 TIP3     5562     TIP3     H2       HT       0.417000       1.00800           0
     34037 TIP3     5563     TIP3     OH2      OT      -0.834000       15.9994           0
     34038 TIP3     5563     TIP3     H1       HT       0.417000       1.00800           0
     34039 TIP3     5563     TIP3     H2       HT       0.417000       1.00800           0
     34040 TIP3     5564     TIP3     OH2      OT      -0.834000       15.9994           0
     34041 TIP3     5564     TIP3     H1       HT       0.417000       1.00800           0
     34042 TIP3     5564     TIP3     H2       HT       0.417000       1.00800           0
     34043 TIP3     5565     TIP3     OH2      OT      -0.834000       15.9994           0
     34044 TIP3     5565     TIP3     H1       HT       0.417000       1.00800           0
     34045 TIP3     5565     TIP3     H2       HT       0.417000       1.00800           0
     34046 TIP3     5566     TIP3     OH2      OT      -0.834000       15.9994           0
     34047 TIP3     5566     TIP3     H1       HT       0.417000       1.00800           0
     34048 TIP3     5566     TIP3     H2       HT       0.417000       1.00800           0
     34049 TIP3     5567     TIP3     OH2      OT      -0.834000       15.9994           0
     34050 TIP3     5567     TIP3     H1       HT       0.417000       1.00800           0
     34051 TIP3     5567     TIP3     H2       HT       0.417000       1.00800           0
     34052 TIP3     5568     TIP3     OH2      OT      -0.834000       15.9994           0
     34053 TIP3     5568     TIP3     H1       HT       0.417000       1.00800           0
     34054 TIP3     5568     TIP3     H2       HT       0.417000       1.00800           0
     34055 TIP3     5569     TIP3     OH2      OT      -0.834000       15.9994           0
     34056 TIP3     5569     TIP3     H1       HT       0.417000       1.00800           0
     34057 TIP3     5569     TIP3     H2       HT       0.417000       1.00800           0
     34058 TIP3     5570     TIP3     OH2      OT      -0.834000       15.9994           0
     34059 TIP3     5570     TIP3     H1       HT       0.417000       1.00800           0
     34060 TIP3     5570     TIP3     H2       HT       0.417000       1.00800           0
     34061 TIP3     5571     TIP3     OH2      OT      -0.834000       15.9994           0
     34062 TIP3     5571     TIP3     H1       HT       0.417000       1.00800           0
     34063 TIP3     5571     TIP3     H2       HT       0.417000       1.00800           0
     34064 TIP3     5572     TIP3     OH2      OT      -0.834000       15.9994           0
     34065 TIP3     5572     TIP3     H1       HT       0.417000       1.00800           0
     34066 TIP3     5572     TIP3     H2       HT       0.417000       1.00800           0
     34067 TIP3     5573     TIP3     OH2      OT      -0.834000       15.9994           0
     34068 TIP3     5573     TIP3     H1       HT       0.417000       1.00800           0
     34069 TIP3     5573     TIP3     H2       HT       0.417000       1.00800           0
     34070 TIP3     5574     TIP3     OH2      OT      -0.834000       15.9994           0
     34071 TIP3     5574     TIP3     H1       HT       0.417000       1.00800           0
     34072 TIP3     5574     TIP3     H2       HT       0.417000       1.00800           0
     34073 TIP3     5575     TIP3     OH2      OT      -0.834000       15.9994           0
     34074 TIP3     5575     TIP3     H1       HT       0.417000       1.00800           0
     34075 TIP3     5575     TIP3     H2       HT       0.417000       1.00800           0
     34076 TIP3     5576     TIP3     OH2      OT      -0.834000       15.9994           0
     34077 TIP3     5576     TIP3     H1       HT       0.417000       1.00800           0
     34078 TIP3     5576     TIP3     H2       HT       0.417000       1.00800           0
     34079 TIP3     5577     TIP3     OH2      OT      -0.834000       15.9994           0
     34080 TIP3     5577     TIP3     H1       HT       0.417000       1.00800           0
     34081 TIP3     5577     TIP3     H2       HT       0.417000       1.00800           0
     34082 TIP3     5578     TIP3     OH2      OT      -0.834000       15.9994           0
     34083 TIP3     5578     TIP3     H1       HT       0.417000       1.00800           0
     34084 TIP3     5578     TIP3     H2       HT       0.417000       1.00800           0
     34085 TIP3     5579     TIP3     OH2      OT      -0.834000       15.9994           0
     34086 TIP3     5579     TIP3     H1       HT       0.417000       1.00800           0
     34087 TIP3     5579     TIP3     H2       HT       0.417000       1.00800           0
     34088 TIP3     5580     TIP3     OH2      OT      -0.834000       15.9994           0
     34089 TIP3     5580     TIP3     H1       HT       0.417000       1.00800           0
     34090 TIP3     5580     TIP3     H2       HT       0.417000       1.00800           0
     34091 TIP3     5581     TIP3     OH2      OT      -0.834000       15.9994           0
     34092 TIP3     5581     TIP3     H1       HT       0.417000       1.00800           0
     34093 TIP3     5581     TIP3     H2       HT       0.417000       1.00800           0
     34094 TIP3     5582     TIP3     OH2      OT      -0.834000       15.9994           0
     34095 TIP3     5582     TIP3     H1       HT       0.417000       1.00800           0
     34096 TIP3     5582     TIP3     H2       HT       0.417000       1.00800           0
     34097 TIP3     5583     TIP3     OH2      OT      -0.834000       15.9994           0
     34098 TIP3     5583     TIP3     H1       HT       0.417000       1.00800           0
     34099 TIP3     5583     TIP3     H2       HT       0.417000       1.00800           0
     34100 TIP3     5584     TIP3     OH2      OT      -0.834000       15.9994           0
     34101 TIP3     5584     TIP3     H1       HT       0.417000       1.00800           0
     34102 TIP3     5584     TIP3     H2       HT       0.417000       1.00800           0
     34103 TIP3     5585     TIP3     OH2      OT      -0.834000       15.9994           0
     34104 TIP3     5585     TIP3     H1       HT       0.417000       1.00800           0
     34105 TIP3     5585     TIP3     H2       HT       0.417000       1.00800           0
     34106 TIP3     5586     TIP3     OH2      OT      -0.834000       15.9994           0
     34107 TIP3     5586     TIP3     H1       HT       0.417000       1.00800           0
     34108 TIP3     5586     TIP3     H2       HT       0.417000       1.00800           0
     34109 TIP3     5587     TIP3     OH2      OT      -0.834000       15.9994           0
     34110 TIP3     5587     TIP3     H1       HT       0.417000       1.00800           0
     34111 TIP3     5587     TIP3     H2       HT       0.417000       1.00800           0
     34112 TIP3     5588     TIP3     OH2      OT      -0.834000       15.9994           0
     34113 TIP3     5588     TIP3     H1       HT       0.417000       1.00800           0
     34114 TIP3     5588     TIP3     H2       HT       0.417000       1.00800           0
     34115 TIP3     5589     TIP3     OH2      OT      -0.834000       15.9994           0
     34116 TIP3     5589     TIP3     H1       HT       0.417000       1.00800           0
     34117 TIP3     5589     TIP3     H2       HT       0.417000       1.00800           0
     34118 TIP3     5590     TIP3     OH2      OT      -0.834000       15.9994           0
     34119 TIP3     5590     TIP3     H1       HT       0.417000       1.00800           0
     34120 TIP3     5590     TIP3     H2       HT       0.417000       1.00800           0
     34121 TIP3     5591     TIP3     OH2      OT      -0.834000       15.9994           0
     34122 TIP3     5591     TIP3     H1       HT       0.417000       1.00800           0
     34123 TIP3     5591     TIP3     H2       HT       0.417000       1.00800           0
     34124 TIP3     5592     TIP3     OH2      OT      -0.834000       15.9994           0
     34125 TIP3     5592     TIP3     H1       HT       0.417000       1.00800           0
     34126 TIP3     5592     TIP3     H2       HT       0.417000       1.00800           0
     34127 TIP3     5593     TIP3     OH2      OT      -0.834000       15.9994           0
     34128 TIP3     5593     TIP3     H1       HT       0.417000       1.00800           0
     34129 TIP3     5593     TIP3     H2       HT       0.417000       1.00800           0
     34130 TIP3     5594     TIP3     OH2      OT      -0.834000       15.9994           0
     34131 TIP3     5594     TIP3     H1       HT       0.417000       1.00800           0
     34132 TIP3     5594     TIP3     H2       HT       0.417000       1.00800           0
     34133 TIP3     5595     TIP3     OH2      OT      -0.834000       15.9994           0
     34134 TIP3     5595     TIP3     H1       HT       0.417000       1.00800           0
     34135 TIP3     5595     TIP3     H2       HT       0.417000       1.00800           0
     34136 TIP3     5596     TIP3     OH2      OT      -0.834000       15.9994           0
     34137 TIP3     5596     TIP3     H1       HT       0.417000       1.00800           0
     34138 TIP3     5596     TIP3     H2       HT       0.417000       1.00800           0
     34139 TIP3     5597     TIP3     OH2      OT      -0.834000       15.9994           0
     34140 TIP3     5597     TIP3     H1       HT       0.417000       1.00800           0
     34141 TIP3     5597     TIP3     H2       HT       0.417000       1.00800           0
     34142 TIP3     5598     TIP3     OH2      OT      -0.834000       15.9994           0
     34143 TIP3     5598     TIP3     H1       HT       0.417000       1.00800           0
     34144 TIP3     5598     TIP3     H2       HT       0.417000       1.00800           0
     34145 TIP3     5599     TIP3     OH2      OT      -0.834000       15.9994           0
     34146 TIP3     5599     TIP3     H1       HT       0.417000       1.00800           0
     34147 TIP3     5599     TIP3     H2       HT       0.417000       1.00800           0
     34148 TIP3     5600     TIP3     OH2      OT      -0.834000       15.9994           0
     34149 TIP3     5600     TIP3     H1       HT       0.417000       1.00800           0
     34150 TIP3     5600     TIP3     H2       HT       0.417000       1.00800           0
     34151 TIP3     5601     TIP3     OH2      OT      -0.834000       15.9994           0
     34152 TIP3     5601     TIP3     H1       HT       0.417000       1.00800           0
     34153 TIP3     5601     TIP3     H2       HT       0.417000       1.00800           0
     34154 TIP3     5602     TIP3     OH2      OT      -0.834000       15.9994           0
     34155 TIP3     5602     TIP3     H1       HT       0.417000       1.00800           0
     34156 TIP3     5602     TIP3     H2       HT       0.417000       1.00800           0
     34157 TIP3     5603     TIP3     OH2      OT      -0.834000       15.9994           0
     34158 TIP3     5603     TIP3     H1       HT       0.417000       1.00800           0
     34159 TIP3     5603     TIP3     H2       HT       0.417000       1.00800           0
     34160 TIP3     5604     TIP3     OH2      OT      -0.834000       15.9994           0
     34161 TIP3     5604     TIP3     H1       HT       0.417000       1.00800           0
     34162 TIP3     5604     TIP3     H2       HT       0.417000       1.00800           0
     34163 TIP3     5605     TIP3     OH2      OT      -0.834000       15.9994           0
     34164 TIP3     5605     TIP3     H1       HT       0.417000       1.00800           0
     34165 TIP3     5605     TIP3     H2       HT       0.417000       1.00800           0
     34166 TIP3     5606     TIP3     OH2      OT      -0.834000       15.9994           0
     34167 TIP3     5606     TIP3     H1       HT       0.417000       1.00800           0
     34168 TIP3     5606     TIP3     H2       HT       0.417000       1.00800           0
     34169 TIP3     5607     TIP3     OH2      OT      -0.834000       15.9994           0
     34170 TIP3     5607     TIP3     H1       HT       0.417000       1.00800           0
     34171 TIP3     5607     TIP3     H2       HT       0.417000       1.00800           0
     34172 TIP3     5608     TIP3     OH2      OT      -0.834000       15.9994           0
     34173 TIP3     5608     TIP3     H1       HT       0.417000       1.00800           0
     34174 TIP3     5608     TIP3     H2       HT       0.417000       1.00800           0
     34175 TIP3     5609     TIP3     OH2      OT      -0.834000       15.9994           0
     34176 TIP3     5609     TIP3     H1       HT       0.417000       1.00800           0
     34177 TIP3     5609     TIP3     H2       HT       0.417000       1.00800           0
     34178 TIP3     5610     TIP3     OH2      OT      -0.834000       15.9994           0
     34179 TIP3     5610     TIP3     H1       HT       0.417000       1.00800           0
     34180 TIP3     5610     TIP3     H2       HT       0.417000       1.00800           0
     34181 TIP3     5611     TIP3     OH2      OT      -0.834000       15.9994           0
     34182 TIP3     5611     TIP3     H1       HT       0.417000       1.00800           0
     34183 TIP3     5611     TIP3     H2       HT       0.417000       1.00800           0
     34184 TIP3     5612     TIP3     OH2      OT      -0.834000       15.9994           0
     34185 TIP3     5612     TIP3     H1       HT       0.417000       1.00800           0
     34186 TIP3     5612     TIP3     H2       HT       0.417000       1.00800           0
     34187 TIP3     5613     TIP3     OH2      OT      -0.834000       15.9994           0
     34188 TIP3     5613     TIP3     H1       HT       0.417000       1.00800           0
     34189 TIP3     5613     TIP3     H2       HT       0.417000       1.00800           0
     34190 TIP3     5614     TIP3     OH2      OT      -0.834000       15.9994           0
     34191 TIP3     5614     TIP3     H1       HT       0.417000       1.00800           0
     34192 TIP3     5614     TIP3     H2       HT       0.417000       1.00800           0
     34193 TIP3     5615     TIP3     OH2      OT      -0.834000       15.9994           0
     34194 TIP3     5615     TIP3     H1       HT       0.417000       1.00800           0
     34195 TIP3     5615     TIP3     H2       HT       0.417000       1.00800           0
     34196 TIP3     5616     TIP3     OH2      OT      -0.834000       15.9994           0
     34197 TIP3     5616     TIP3     H1       HT       0.417000       1.00800           0
     34198 TIP3     5616     TIP3     H2       HT       0.417000       1.00800           0
     34199 TIP3     5617     TIP3     OH2      OT      -0.834000       15.9994           0
     34200 TIP3     5617     TIP3     H1       HT       0.417000       1.00800           0
     34201 TIP3     5617     TIP3     H2       HT       0.417000       1.00800           0
     34202 TIP3     5618     TIP3     OH2      OT      -0.834000       15.9994           0
     34203 TIP3     5618     TIP3     H1       HT       0.417000       1.00800           0
     34204 TIP3     5618     TIP3     H2       HT       0.417000       1.00800           0
     34205 TIP3     5619     TIP3     OH2      OT      -0.834000       15.9994           0
     34206 TIP3     5619     TIP3     H1       HT       0.417000       1.00800           0
     34207 TIP3     5619     TIP3     H2       HT       0.417000       1.00800           0
     34208 TIP3     5620     TIP3     OH2      OT      -0.834000       15.9994           0
     34209 TIP3     5620     TIP3     H1       HT       0.417000       1.00800           0
     34210 TIP3     5620     TIP3     H2       HT       0.417000       1.00800           0
     34211 TIP3     5621     TIP3     OH2      OT      -0.834000       15.9994           0
     34212 TIP3     5621     TIP3     H1       HT       0.417000       1.00800           0
     34213 TIP3     5621     TIP3     H2       HT       0.417000       1.00800           0
     34214 TIP3     5622     TIP3     OH2      OT      -0.834000       15.9994           0
     34215 TIP3     5622     TIP3     H1       HT       0.417000       1.00800           0
     34216 TIP3     5622     TIP3     H2       HT       0.417000       1.00800           0
     34217 TIP3     5623     TIP3     OH2      OT      -0.834000       15.9994           0
     34218 TIP3     5623     TIP3     H1       HT       0.417000       1.00800           0
     34219 TIP3     5623     TIP3     H2       HT       0.417000       1.00800           0
     34220 TIP3     5624     TIP3     OH2      OT      -0.834000       15.9994           0
     34221 TIP3     5624     TIP3     H1       HT       0.417000       1.00800           0
     34222 TIP3     5624     TIP3     H2       HT       0.417000       1.00800           0
     34223 TIP3     5625     TIP3     OH2      OT      -0.834000       15.9994           0
     34224 TIP3     5625     TIP3     H1       HT       0.417000       1.00800           0
     34225 TIP3     5625     TIP3     H2       HT       0.417000       1.00800           0
     34226 TIP3     5626     TIP3     OH2      OT      -0.834000       15.9994           0
     34227 TIP3     5626     TIP3     H1       HT       0.417000       1.00800           0
     34228 TIP3     5626     TIP3     H2       HT       0.417000       1.00800           0
     34229 TIP3     5627     TIP3     OH2      OT      -0.834000       15.9994           0
     34230 TIP3     5627     TIP3     H1       HT       0.417000       1.00800           0
     34231 TIP3     5627     TIP3     H2       HT       0.417000       1.00800           0
     34232 TIP3     5628     TIP3     OH2      OT      -0.834000       15.9994           0
     34233 TIP3     5628     TIP3     H1       HT       0.417000       1.00800           0
     34234 TIP3     5628     TIP3     H2       HT       0.417000       1.00800           0
     34235 TIP3     5629     TIP3     OH2      OT      -0.834000       15.9994           0
     34236 TIP3     5629     TIP3     H1       HT       0.417000       1.00800           0
     34237 TIP3     5629     TIP3     H2       HT       0.417000       1.00800           0
     34238 TIP3     5630     TIP3     OH2      OT      -0.834000       15.9994           0
     34239 TIP3     5630     TIP3     H1       HT       0.417000       1.00800           0
     34240 TIP3     5630     TIP3     H2       HT       0.417000       1.00800           0
     34241 TIP3     5631     TIP3     OH2      OT      -0.834000       15.9994           0
     34242 TIP3     5631     TIP3     H1       HT       0.417000       1.00800           0
     34243 TIP3     5631     TIP3     H2       HT       0.417000       1.00800           0
     34244 TIP3     5632     TIP3     OH2      OT      -0.834000       15.9994           0
     34245 TIP3     5632     TIP3     H1       HT       0.417000       1.00800           0
     34246 TIP3     5632     TIP3     H2       HT       0.417000       1.00800           0
     34247 TIP3     5633     TIP3     OH2      OT      -0.834000       15.9994           0
     34248 TIP3     5633     TIP3     H1       HT       0.417000       1.00800           0
     34249 TIP3     5633     TIP3     H2       HT       0.417000       1.00800           0
     34250 TIP3     5634     TIP3     OH2      OT      -0.834000       15.9994           0
     34251 TIP3     5634     TIP3     H1       HT       0.417000       1.00800           0
     34252 TIP3     5634     TIP3     H2       HT       0.417000       1.00800           0
     34253 TIP3     5635     TIP3     OH2      OT      -0.834000       15.9994           0
     34254 TIP3     5635     TIP3     H1       HT       0.417000       1.00800           0
     34255 TIP3     5635     TIP3     H2       HT       0.417000       1.00800           0
     34256 TIP3     5636     TIP3     OH2      OT      -0.834000       15.9994           0
     34257 TIP3     5636     TIP3     H1       HT       0.417000       1.00800           0
     34258 TIP3     5636     TIP3     H2       HT       0.417000       1.00800           0
     34259 TIP3     5637     TIP3     OH2      OT      -0.834000       15.9994           0
     34260 TIP3     5637     TIP3     H1       HT       0.417000       1.00800           0
     34261 TIP3     5637     TIP3     H2       HT       0.417000       1.00800           0
     34262 TIP3     5638     TIP3     OH2      OT      -0.834000       15.9994           0
     34263 TIP3     5638     TIP3     H1       HT       0.417000       1.00800           0
     34264 TIP3     5638     TIP3     H2       HT       0.417000       1.00800           0
     34265 TIP3     5639     TIP3     OH2      OT      -0.834000       15.9994           0
     34266 TIP3     5639     TIP3     H1       HT       0.417000       1.00800           0
     34267 TIP3     5639     TIP3     H2       HT       0.417000       1.00800           0
     34268 TIP3     5640     TIP3     OH2      OT      -0.834000       15.9994           0
     34269 TIP3     5640     TIP3     H1       HT       0.417000       1.00800           0
     34270 TIP3     5640     TIP3     H2       HT       0.417000       1.00800           0
     34271 TIP3     5641     TIP3     OH2      OT      -0.834000       15.9994           0
     34272 TIP3     5641     TIP3     H1       HT       0.417000       1.00800           0
     34273 TIP3     5641     TIP3     H2       HT       0.417000       1.00800           0
     34274 TIP3     5642     TIP3     OH2      OT      -0.834000       15.9994           0
     34275 TIP3     5642     TIP3     H1       HT       0.417000       1.00800           0
     34276 TIP3     5642     TIP3     H2       HT       0.417000       1.00800           0
     34277 TIP3     5643     TIP3     OH2      OT      -0.834000       15.9994           0
     34278 TIP3     5643     TIP3     H1       HT       0.417000       1.00800           0
     34279 TIP3     5643     TIP3     H2       HT       0.417000       1.00800           0
     34280 TIP3     5644     TIP3     OH2      OT      -0.834000       15.9994           0
     34281 TIP3     5644     TIP3     H1       HT       0.417000       1.00800           0
     34282 TIP3     5644     TIP3     H2       HT       0.417000       1.00800           0
     34283 TIP3     5645     TIP3     OH2      OT      -0.834000       15.9994           0
     34284 TIP3     5645     TIP3     H1       HT       0.417000       1.00800           0
     34285 TIP3     5645     TIP3     H2       HT       0.417000       1.00800           0
     34286 TIP3     5646     TIP3     OH2      OT      -0.834000       15.9994           0
     34287 TIP3     5646     TIP3     H1       HT       0.417000       1.00800           0
     34288 TIP3     5646     TIP3     H2       HT       0.417000       1.00800           0
     34289 TIP3     5647     TIP3     OH2      OT      -0.834000       15.9994           0
     34290 TIP3     5647     TIP3     H1       HT       0.417000       1.00800           0
     34291 TIP3     5647     TIP3     H2       HT       0.417000       1.00800           0
     34292 TIP3     5648     TIP3     OH2      OT      -0.834000       15.9994           0
     34293 TIP3     5648     TIP3     H1       HT       0.417000       1.00800           0
     34294 TIP3     5648     TIP3     H2       HT       0.417000       1.00800           0
     34295 TIP3     5649     TIP3     OH2      OT      -0.834000       15.9994           0
     34296 TIP3     5649     TIP3     H1       HT       0.417000       1.00800           0
     34297 TIP3     5649     TIP3     H2       HT       0.417000       1.00800           0
     34298 TIP3     5650     TIP3     OH2      OT      -0.834000       15.9994           0
     34299 TIP3     5650     TIP3     H1       HT       0.417000       1.00800           0
     34300 TIP3     5650     TIP3     H2       HT       0.417000       1.00800           0
     34301 TIP3     5651     TIP3     OH2      OT      -0.834000       15.9994           0
     34302 TIP3     5651     TIP3     H1       HT       0.417000       1.00800           0
     34303 TIP3     5651     TIP3     H2       HT       0.417000       1.00800           0
     34304 TIP3     5652     TIP3     OH2      OT      -0.834000       15.9994           0
     34305 TIP3     5652     TIP3     H1       HT       0.417000       1.00800           0
     34306 TIP3     5652     TIP3     H2       HT       0.417000       1.00800           0
     34307 TIP3     5653     TIP3     OH2      OT      -0.834000       15.9994           0
     34308 TIP3     5653     TIP3     H1       HT       0.417000       1.00800           0
     34309 TIP3     5653     TIP3     H2       HT       0.417000       1.00800           0
     34310 TIP3     5654     TIP3     OH2      OT      -0.834000       15.9994           0
     34311 TIP3     5654     TIP3     H1       HT       0.417000       1.00800           0
     34312 TIP3     5654     TIP3     H2       HT       0.417000       1.00800           0
     34313 TIP3     5655     TIP3     OH2      OT      -0.834000       15.9994           0
     34314 TIP3     5655     TIP3     H1       HT       0.417000       1.00800           0
     34315 TIP3     5655     TIP3     H2       HT       0.417000       1.00800           0
     34316 TIP3     5656     TIP3     OH2      OT      -0.834000       15.9994           0
     34317 TIP3     5656     TIP3     H1       HT       0.417000       1.00800           0
     34318 TIP3     5656     TIP3     H2       HT       0.417000       1.00800           0
     34319 TIP3     5657     TIP3     OH2      OT      -0.834000       15.9994           0
     34320 TIP3     5657     TIP3     H1       HT       0.417000       1.00800           0
     34321 TIP3     5657     TIP3     H2       HT       0.417000       1.00800           0
     34322 TIP3     5658     TIP3     OH2      OT      -0.834000       15.9994           0
     34323 TIP3     5658     TIP3     H1       HT       0.417000       1.00800           0
     34324 TIP3     5658     TIP3     H2       HT       0.417000       1.00800           0
     34325 TIP3     5659     TIP3     OH2      OT      -0.834000       15.9994           0
     34326 TIP3     5659     TIP3     H1       HT       0.417000       1.00800           0
     34327 TIP3     5659     TIP3     H2       HT       0.417000       1.00800           0
     34328 TIP3     5660     TIP3     OH2      OT      -0.834000       15.9994           0
     34329 TIP3     5660     TIP3     H1       HT       0.417000       1.00800           0
     34330 TIP3     5660     TIP3     H2       HT       0.417000       1.00800           0
     34331 TIP3     5661     TIP3     OH2      OT      -0.834000       15.9994           0
     34332 TIP3     5661     TIP3     H1       HT       0.417000       1.00800           0
     34333 TIP3     5661     TIP3     H2       HT       0.417000       1.00800           0
     34334 TIP3     5662     TIP3     OH2      OT      -0.834000       15.9994           0
     34335 TIP3     5662     TIP3     H1       HT       0.417000       1.00800           0
     34336 TIP3     5662     TIP3     H2       HT       0.417000       1.00800           0
     34337 TIP3     5663     TIP3     OH2      OT      -0.834000       15.9994           0
     34338 TIP3     5663     TIP3     H1       HT       0.417000       1.00800           0
     34339 TIP3     5663     TIP3     H2       HT       0.417000       1.00800           0
     34340 TIP3     5664     TIP3     OH2      OT      -0.834000       15.9994           0
     34341 TIP3     5664     TIP3     H1       HT       0.417000       1.00800           0
     34342 TIP3     5664     TIP3     H2       HT       0.417000       1.00800           0
     34343 TIP3     5665     TIP3     OH2      OT      -0.834000       15.9994           0
     34344 TIP3     5665     TIP3     H1       HT       0.417000       1.00800           0
     34345 TIP3     5665     TIP3     H2       HT       0.417000       1.00800           0
     34346 TIP3     5666     TIP3     OH2      OT      -0.834000       15.9994           0
     34347 TIP3     5666     TIP3     H1       HT       0.417000       1.00800           0
     34348 TIP3     5666     TIP3     H2       HT       0.417000       1.00800           0
     34349 TIP3     5667     TIP3     OH2      OT      -0.834000       15.9994           0
     34350 TIP3     5667     TIP3     H1       HT       0.417000       1.00800           0
     34351 TIP3     5667     TIP3     H2       HT       0.417000       1.00800           0
     34352 TIP3     5668     TIP3     OH2      OT      -0.834000       15.9994           0
     34353 TIP3     5668     TIP3     H1       HT       0.417000       1.00800           0
     34354 TIP3     5668     TIP3     H2       HT       0.417000       1.00800           0
     34355 TIP3     5669     TIP3     OH2      OT      -0.834000       15.9994           0
     34356 TIP3     5669     TIP3     H1       HT       0.417000       1.00800           0
     34357 TIP3     5669     TIP3     H2       HT       0.417000       1.00800           0
     34358 TIP3     5670     TIP3     OH2      OT      -0.834000       15.9994           0
     34359 TIP3     5670     TIP3     H1       HT       0.417000       1.00800           0
     34360 TIP3     5670     TIP3     H2       HT       0.417000       1.00800           0
     34361 TIP3     5671     TIP3     OH2      OT      -0.834000       15.9994           0
     34362 TIP3     5671     TIP3     H1       HT       0.417000       1.00800           0
     34363 TIP3     5671     TIP3     H2       HT       0.417000       1.00800           0
     34364 TIP3     5672     TIP3     OH2      OT      -0.834000       15.9994           0
     34365 TIP3     5672     TIP3     H1       HT       0.417000       1.00800           0
     34366 TIP3     5672     TIP3     H2       HT       0.417000       1.00800           0
     34367 TIP3     5673     TIP3     OH2      OT      -0.834000       15.9994           0
     34368 TIP3     5673     TIP3     H1       HT       0.417000       1.00800           0
     34369 TIP3     5673     TIP3     H2       HT       0.417000       1.00800           0
     34370 TIP3     5674     TIP3     OH2      OT      -0.834000       15.9994           0
     34371 TIP3     5674     TIP3     H1       HT       0.417000       1.00800           0
     34372 TIP3     5674     TIP3     H2       HT       0.417000       1.00800           0
     34373 TIP3     5675     TIP3     OH2      OT      -0.834000       15.9994           0
     34374 TIP3     5675     TIP3     H1       HT       0.417000       1.00800           0
     34375 TIP3     5675     TIP3     H2       HT       0.417000       1.00800           0
     34376 TIP3     5676     TIP3     OH2      OT      -0.834000       15.9994           0
     34377 TIP3     5676     TIP3     H1       HT       0.417000       1.00800           0
     34378 TIP3     5676     TIP3     H2       HT       0.417000       1.00800           0
     34379 TIP3     5677     TIP3     OH2      OT      -0.834000       15.9994           0
     34380 TIP3     5677     TIP3     H1       HT       0.417000       1.00800           0
     34381 TIP3     5677     TIP3     H2       HT       0.417000       1.00800           0
     34382 TIP3     5678     TIP3     OH2      OT      -0.834000       15.9994           0
     34383 TIP3     5678     TIP3     H1       HT       0.417000       1.00800           0
     34384 TIP3     5678     TIP3     H2       HT       0.417000       1.00800           0
     34385 TIP3     5679     TIP3     OH2      OT      -0.834000       15.9994           0
     34386 TIP3     5679     TIP3     H1       HT       0.417000       1.00800           0
     34387 TIP3     5679     TIP3     H2       HT       0.417000       1.00800           0
     34388 TIP3     5680     TIP3     OH2      OT      -0.834000       15.9994           0
     34389 TIP3     5680     TIP3     H1       HT       0.417000       1.00800           0
     34390 TIP3     5680     TIP3     H2       HT       0.417000       1.00800           0
     34391 TIP3     5681     TIP3     OH2      OT      -0.834000       15.9994           0
     34392 TIP3     5681     TIP3     H1       HT       0.417000       1.00800           0
     34393 TIP3     5681     TIP3     H2       HT       0.417000       1.00800           0
     34394 TIP3     5682     TIP3     OH2      OT      -0.834000       15.9994           0
     34395 TIP3     5682     TIP3     H1       HT       0.417000       1.00800           0
     34396 TIP3     5682     TIP3     H2       HT       0.417000       1.00800           0
     34397 TIP3     5683     TIP3     OH2      OT      -0.834000       15.9994           0
     34398 TIP3     5683     TIP3     H1       HT       0.417000       1.00800           0
     34399 TIP3     5683     TIP3     H2       HT       0.417000       1.00800           0
     34400 TIP3     5684     TIP3     OH2      OT      -0.834000       15.9994           0
     34401 TIP3     5684     TIP3     H1       HT       0.417000       1.00800           0
     34402 TIP3     5684     TIP3     H2       HT       0.417000       1.00800           0
     34403 TIP3     5685     TIP3     OH2      OT      -0.834000       15.9994           0
     34404 TIP3     5685     TIP3     H1       HT       0.417000       1.00800           0
     34405 TIP3     5685     TIP3     H2       HT       0.417000       1.00800           0
     34406 TIP3     5686     TIP3     OH2      OT      -0.834000       15.9994           0
     34407 TIP3     5686     TIP3     H1       HT       0.417000       1.00800           0
     34408 TIP3     5686     TIP3     H2       HT       0.417000       1.00800           0
     34409 TIP3     5687     TIP3     OH2      OT      -0.834000       15.9994           0
     34410 TIP3     5687     TIP3     H1       HT       0.417000       1.00800           0
     34411 TIP3     5687     TIP3     H2       HT       0.417000       1.00800           0
     34412 TIP3     5688     TIP3     OH2      OT      -0.834000       15.9994           0
     34413 TIP3     5688     TIP3     H1       HT       0.417000       1.00800           0
     34414 TIP3     5688     TIP3     H2       HT       0.417000       1.00800           0
     34415 TIP3     5689     TIP3     OH2      OT      -0.834000       15.9994           0
     34416 TIP3     5689     TIP3     H1       HT       0.417000       1.00800           0
     34417 TIP3     5689     TIP3     H2       HT       0.417000       1.00800           0
     34418 TIP3     5690     TIP3     OH2      OT      -0.834000       15.9994           0
     34419 TIP3     5690     TIP3     H1       HT       0.417000       1.00800           0
     34420 TIP3     5690     TIP3     H2       HT       0.417000       1.00800           0
     34421 TIP3     5691     TIP3     OH2      OT      -0.834000       15.9994           0
     34422 TIP3     5691     TIP3     H1       HT       0.417000       1.00800           0
     34423 TIP3     5691     TIP3     H2       HT       0.417000       1.00800           0
     34424 TIP3     5692     TIP3     OH2      OT      -0.834000       15.9994           0
     34425 TIP3     5692     TIP3     H1       HT       0.417000       1.00800           0
     34426 TIP3     5692     TIP3     H2       HT       0.417000       1.00800           0
     34427 TIP3     5693     TIP3     OH2      OT      -0.834000       15.9994           0
     34428 TIP3     5693     TIP3     H1       HT       0.417000       1.00800           0
     34429 TIP3     5693     TIP3     H2       HT       0.417000       1.00800           0
     34430 TIP3     5694     TIP3     OH2      OT      -0.834000       15.9994           0
     34431 TIP3     5694     TIP3     H1       HT       0.417000       1.00800           0
     34432 TIP3     5694     TIP3     H2       HT       0.417000       1.00800           0
     34433 TIP3     5695     TIP3     OH2      OT      -0.834000       15.9994           0
     34434 TIP3     5695     TIP3     H1       HT       0.417000       1.00800           0
     34435 TIP3     5695     TIP3     H2       HT       0.417000       1.00800           0
     34436 TIP3     5696     TIP3     OH2      OT      -0.834000       15.9994           0
     34437 TIP3     5696     TIP3     H1       HT       0.417000       1.00800           0
     34438 TIP3     5696     TIP3     H2       HT       0.417000       1.00800           0
     34439 TIP3     5697     TIP3     OH2      OT      -0.834000       15.9994           0
     34440 TIP3     5697     TIP3     H1       HT       0.417000       1.00800           0
     34441 TIP3     5697     TIP3     H2       HT       0.417000       1.00800           0
     34442 TIP3     5698     TIP3     OH2      OT      -0.834000       15.9994           0
     34443 TIP3     5698     TIP3     H1       HT       0.417000       1.00800           0
     34444 TIP3     5698     TIP3     H2       HT       0.417000       1.00800           0
     34445 TIP3     5699     TIP3     OH2      OT      -0.834000       15.9994           0
     34446 TIP3     5699     TIP3     H1       HT       0.417000       1.00800           0
     34447 TIP3     5699     TIP3     H2       HT       0.417000       1.00800           0
     34448 TIP3     5700     TIP3     OH2      OT      -0.834000       15.9994           0
     34449 TIP3     5700     TIP3     H1       HT       0.417000       1.00800           0
     34450 TIP3     5700     TIP3     H2       HT       0.417000       1.00800           0
     34451 TIP3     5701     TIP3     OH2      OT      -0.834000       15.9994           0
     34452 TIP3     5701     TIP3     H1       HT       0.417000       1.00800           0
     34453 TIP3     5701     TIP3     H2       HT       0.417000       1.00800           0
     34454 TIP3     5702     TIP3     OH2      OT      -0.834000       15.9994           0
     34455 TIP3     5702     TIP3     H1       HT       0.417000       1.00800           0
     34456 TIP3     5702     TIP3     H2       HT       0.417000       1.00800           0
     34457 TIP3     5703     TIP3     OH2      OT      -0.834000       15.9994           0
     34458 TIP3     5703     TIP3     H1       HT       0.417000       1.00800           0
     34459 TIP3     5703     TIP3     H2       HT       0.417000       1.00800           0
     34460 TIP3     5704     TIP3     OH2      OT      -0.834000       15.9994           0
     34461 TIP3     5704     TIP3     H1       HT       0.417000       1.00800           0
     34462 TIP3     5704     TIP3     H2       HT       0.417000       1.00800           0
     34463 TIP3     5705     TIP3     OH2      OT      -0.834000       15.9994           0
     34464 TIP3     5705     TIP3     H1       HT       0.417000       1.00800           0
     34465 TIP3     5705     TIP3     H2       HT       0.417000       1.00800           0
     34466 TIP3     5706     TIP3     OH2      OT      -0.834000       15.9994           0
     34467 TIP3     5706     TIP3     H1       HT       0.417000       1.00800           0
     34468 TIP3     5706     TIP3     H2       HT       0.417000       1.00800           0
     34469 TIP3     5707     TIP3     OH2      OT      -0.834000       15.9994           0
     34470 TIP3     5707     TIP3     H1       HT       0.417000       1.00800           0
     34471 TIP3     5707     TIP3     H2       HT       0.417000       1.00800           0
     34472 TIP3     5708     TIP3     OH2      OT      -0.834000       15.9994           0
     34473 TIP3     5708     TIP3     H1       HT       0.417000       1.00800           0
     34474 TIP3     5708     TIP3     H2       HT       0.417000       1.00800           0
     34475 TIP3     5709     TIP3     OH2      OT      -0.834000       15.9994           0
     34476 TIP3     5709     TIP3     H1       HT       0.417000       1.00800           0
     34477 TIP3     5709     TIP3     H2       HT       0.417000       1.00800           0
     34478 TIP3     5710     TIP3     OH2      OT      -0.834000       15.9994           0
     34479 TIP3     5710     TIP3     H1       HT       0.417000       1.00800           0
     34480 TIP3     5710     TIP3     H2       HT       0.417000       1.00800           0
     34481 TIP3     5711     TIP3     OH2      OT      -0.834000       15.9994           0
     34482 TIP3     5711     TIP3     H1       HT       0.417000       1.00800           0
     34483 TIP3     5711     TIP3     H2       HT       0.417000       1.00800           0
     34484 TIP3     5712     TIP3     OH2      OT      -0.834000       15.9994           0
     34485 TIP3     5712     TIP3     H1       HT       0.417000       1.00800           0
     34486 TIP3     5712     TIP3     H2       HT       0.417000       1.00800           0
     34487 TIP3     5713     TIP3     OH2      OT      -0.834000       15.9994           0
     34488 TIP3     5713     TIP3     H1       HT       0.417000       1.00800           0
     34489 TIP3     5713     TIP3     H2       HT       0.417000       1.00800           0
     34490 TIP3     5714     TIP3     OH2      OT      -0.834000       15.9994           0
     34491 TIP3     5714     TIP3     H1       HT       0.417000       1.00800           0
     34492 TIP3     5714     TIP3     H2       HT       0.417000       1.00800           0
     34493 TIP3     5715     TIP3     OH2      OT      -0.834000       15.9994           0
     34494 TIP3     5715     TIP3     H1       HT       0.417000       1.00800           0
     34495 TIP3     5715     TIP3     H2       HT       0.417000       1.00800           0
     34496 TIP3     5716     TIP3     OH2      OT      -0.834000       15.9994           0
     34497 TIP3     5716     TIP3     H1       HT       0.417000       1.00800           0
     34498 TIP3     5716     TIP3     H2       HT       0.417000       1.00800           0
     34499 TIP3     5717     TIP3     OH2      OT      -0.834000       15.9994           0
     34500 TIP3     5717     TIP3     H1       HT       0.417000       1.00800           0
     34501 TIP3     5717     TIP3     H2       HT       0.417000       1.00800           0
     34502 TIP3     5718     TIP3     OH2      OT      -0.834000       15.9994           0
     34503 TIP3     5718     TIP3     H1       HT       0.417000       1.00800           0
     34504 TIP3     5718     TIP3     H2       HT       0.417000       1.00800           0
     34505 TIP3     5719     TIP3     OH2      OT      -0.834000       15.9994           0
     34506 TIP3     5719     TIP3     H1       HT       0.417000       1.00800           0
     34507 TIP3     5719     TIP3     H2       HT       0.417000       1.00800           0
     34508 TIP3     5720     TIP3     OH2      OT      -0.834000       15.9994           0
     34509 TIP3     5720     TIP3     H1       HT       0.417000       1.00800           0
     34510 TIP3     5720     TIP3     H2       HT       0.417000       1.00800           0
     34511 TIP3     5721     TIP3     OH2      OT      -0.834000       15.9994           0
     34512 TIP3     5721     TIP3     H1       HT       0.417000       1.00800           0
     34513 TIP3     5721     TIP3     H2       HT       0.417000       1.00800           0
     34514 TIP3     5722     TIP3     OH2      OT      -0.834000       15.9994           0
     34515 TIP3     5722     TIP3     H1       HT       0.417000       1.00800           0
     34516 TIP3     5722     TIP3     H2       HT       0.417000       1.00800           0
     34517 TIP3     5723     TIP3     OH2      OT      -0.834000       15.9994           0
     34518 TIP3     5723     TIP3     H1       HT       0.417000       1.00800           0
     34519 TIP3     5723     TIP3     H2       HT       0.417000       1.00800           0
     34520 TIP3     5724     TIP3     OH2      OT      -0.834000       15.9994           0
     34521 TIP3     5724     TIP3     H1       HT       0.417000       1.00800           0
     34522 TIP3     5724     TIP3     H2       HT       0.417000       1.00800           0
     34523 TIP3     5725     TIP3     OH2      OT      -0.834000       15.9994           0
     34524 TIP3     5725     TIP3     H1       HT       0.417000       1.00800           0
     34525 TIP3     5725     TIP3     H2       HT       0.417000       1.00800           0
     34526 TIP3     5726     TIP3     OH2      OT      -0.834000       15.9994           0
     34527 TIP3     5726     TIP3     H1       HT       0.417000       1.00800           0
     34528 TIP3     5726     TIP3     H2       HT       0.417000       1.00800           0
     34529 TIP3     5727     TIP3     OH2      OT      -0.834000       15.9994           0
     34530 TIP3     5727     TIP3     H1       HT       0.417000       1.00800           0
     34531 TIP3     5727     TIP3     H2       HT       0.417000       1.00800           0
     34532 TIP3     5728     TIP3     OH2      OT      -0.834000       15.9994           0
     34533 TIP3     5728     TIP3     H1       HT       0.417000       1.00800           0
     34534 TIP3     5728     TIP3     H2       HT       0.417000       1.00800           0
     34535 TIP3     5729     TIP3     OH2      OT      -0.834000       15.9994           0
     34536 TIP3     5729     TIP3     H1       HT       0.417000       1.00800           0
     34537 TIP3     5729     TIP3     H2       HT       0.417000       1.00800           0
     34538 TIP3     5730     TIP3     OH2      OT      -0.834000       15.9994           0
     34539 TIP3     5730     TIP3     H1       HT       0.417000       1.00800           0
     34540 TIP3     5730     TIP3     H2       HT       0.417000       1.00800           0
     34541 TIP3     5731     TIP3     OH2      OT      -0.834000       15.9994           0
     34542 TIP3     5731     TIP3     H1       HT       0.417000       1.00800           0
     34543 TIP3     5731     TIP3     H2       HT       0.417000       1.00800           0
     34544 TIP3     5732     TIP3     OH2      OT      -0.834000       15.9994           0
     34545 TIP3     5732     TIP3     H1       HT       0.417000       1.00800           0
     34546 TIP3     5732     TIP3     H2       HT       0.417000       1.00800           0
     34547 TIP3     5733     TIP3     OH2      OT      -0.834000       15.9994           0
     34548 TIP3     5733     TIP3     H1       HT       0.417000       1.00800           0
     34549 TIP3     5733     TIP3     H2       HT       0.417000       1.00800           0
     34550 TIP3     5734     TIP3     OH2      OT      -0.834000       15.9994           0
     34551 TIP3     5734     TIP3     H1       HT       0.417000       1.00800           0
     34552 TIP3     5734     TIP3     H2       HT       0.417000       1.00800           0
     34553 TIP3     5735     TIP3     OH2      OT      -0.834000       15.9994           0
     34554 TIP3     5735     TIP3     H1       HT       0.417000       1.00800           0
     34555 TIP3     5735     TIP3     H2       HT       0.417000       1.00800           0
     34556 TIP3     5736     TIP3     OH2      OT      -0.834000       15.9994           0
     34557 TIP3     5736     TIP3     H1       HT       0.417000       1.00800           0
     34558 TIP3     5736     TIP3     H2       HT       0.417000       1.00800           0
     34559 TIP3     5737     TIP3     OH2      OT      -0.834000       15.9994           0
     34560 TIP3     5737     TIP3     H1       HT       0.417000       1.00800           0
     34561 TIP3     5737     TIP3     H2       HT       0.417000       1.00800           0
     34562 TIP3     5738     TIP3     OH2      OT      -0.834000       15.9994           0
     34563 TIP3     5738     TIP3     H1       HT       0.417000       1.00800           0
     34564 TIP3     5738     TIP3     H2       HT       0.417000       1.00800           0
     34565 TIP3     5739     TIP3     OH2      OT      -0.834000       15.9994           0
     34566 TIP3     5739     TIP3     H1       HT       0.417000       1.00800           0
     34567 TIP3     5739     TIP3     H2       HT       0.417000       1.00800           0
     34568 TIP3     5740     TIP3     OH2      OT      -0.834000       15.9994           0
     34569 TIP3     5740     TIP3     H1       HT       0.417000       1.00800           0
     34570 TIP3     5740     TIP3     H2       HT       0.417000       1.00800           0
     34571 TIP3     5741     TIP3     OH2      OT      -0.834000       15.9994           0
     34572 TIP3     5741     TIP3     H1       HT       0.417000       1.00800           0
     34573 TIP3     5741     TIP3     H2       HT       0.417000       1.00800           0
     34574 TIP3     5742     TIP3     OH2      OT      -0.834000       15.9994           0
     34575 TIP3     5742     TIP3     H1       HT       0.417000       1.00800           0
     34576 TIP3     5742     TIP3     H2       HT       0.417000       1.00800           0
     34577 TIP3     5743     TIP3     OH2      OT      -0.834000       15.9994           0
     34578 TIP3     5743     TIP3     H1       HT       0.417000       1.00800           0
     34579 TIP3     5743     TIP3     H2       HT       0.417000       1.00800           0
     34580 TIP3     5744     TIP3     OH2      OT      -0.834000       15.9994           0
     34581 TIP3     5744     TIP3     H1       HT       0.417000       1.00800           0
     34582 TIP3     5744     TIP3     H2       HT       0.417000       1.00800           0
     34583 TIP3     5745     TIP3     OH2      OT      -0.834000       15.9994           0
     34584 TIP3     5745     TIP3     H1       HT       0.417000       1.00800           0
     34585 TIP3     5745     TIP3     H2       HT       0.417000       1.00800           0
     34586 TIP3     5746     TIP3     OH2      OT      -0.834000       15.9994           0
     34587 TIP3     5746     TIP3     H1       HT       0.417000       1.00800           0
     34588 TIP3     5746     TIP3     H2       HT       0.417000       1.00800           0
     34589 TIP3     5747     TIP3     OH2      OT      -0.834000       15.9994           0
     34590 TIP3     5747     TIP3     H1       HT       0.417000       1.00800           0
     34591 TIP3     5747     TIP3     H2       HT       0.417000       1.00800           0
     34592 TIP3     5748     TIP3     OH2      OT      -0.834000       15.9994           0
     34593 TIP3     5748     TIP3     H1       HT       0.417000       1.00800           0
     34594 TIP3     5748     TIP3     H2       HT       0.417000       1.00800           0
     34595 TIP3     5749     TIP3     OH2      OT      -0.834000       15.9994           0
     34596 TIP3     5749     TIP3     H1       HT       0.417000       1.00800           0
     34597 TIP3     5749     TIP3     H2       HT       0.417000       1.00800           0
     34598 TIP3     5750     TIP3     OH2      OT      -0.834000       15.9994           0
     34599 TIP3     5750     TIP3     H1       HT       0.417000       1.00800           0
     34600 TIP3     5750     TIP3     H2       HT       0.417000       1.00800           0
     34601 TIP3     5751     TIP3     OH2      OT      -0.834000       15.9994           0
     34602 TIP3     5751     TIP3     H1       HT       0.417000       1.00800           0
     34603 TIP3     5751     TIP3     H2       HT       0.417000       1.00800           0
     34604 TIP3     5752     TIP3     OH2      OT      -0.834000       15.9994           0
     34605 TIP3     5752     TIP3     H1       HT       0.417000       1.00800           0
     34606 TIP3     5752     TIP3     H2       HT       0.417000       1.00800           0
     34607 TIP3     5753     TIP3     OH2      OT      -0.834000       15.9994           0
     34608 TIP3     5753     TIP3     H1       HT       0.417000       1.00800           0
     34609 TIP3     5753     TIP3     H2       HT       0.417000       1.00800           0
     34610 TIP3     5754     TIP3     OH2      OT      -0.834000       15.9994           0
     34611 TIP3     5754     TIP3     H1       HT       0.417000       1.00800           0
     34612 TIP3     5754     TIP3     H2       HT       0.417000       1.00800           0
     34613 TIP3     5755     TIP3     OH2      OT      -0.834000       15.9994           0
     34614 TIP3     5755     TIP3     H1       HT       0.417000       1.00800           0
     34615 TIP3     5755     TIP3     H2       HT       0.417000       1.00800           0
     34616 TIP3     5756     TIP3     OH2      OT      -0.834000       15.9994           0
     34617 TIP3     5756     TIP3     H1       HT       0.417000       1.00800           0
     34618 TIP3     5756     TIP3     H2       HT       0.417000       1.00800           0
     34619 TIP3     5757     TIP3     OH2      OT      -0.834000       15.9994           0
     34620 TIP3     5757     TIP3     H1       HT       0.417000       1.00800           0
     34621 TIP3     5757     TIP3     H2       HT       0.417000       1.00800           0
     34622 TIP3     5758     TIP3     OH2      OT      -0.834000       15.9994           0
     34623 TIP3     5758     TIP3     H1       HT       0.417000       1.00800           0
     34624 TIP3     5758     TIP3     H2       HT       0.417000       1.00800           0
     34625 TIP3     5759     TIP3     OH2      OT      -0.834000       15.9994           0
     34626 TIP3     5759     TIP3     H1       HT       0.417000       1.00800           0
     34627 TIP3     5759     TIP3     H2       HT       0.417000       1.00800           0
     34628 TIP3     5760     TIP3     OH2      OT      -0.834000       15.9994           0
     34629 TIP3     5760     TIP3     H1       HT       0.417000       1.00800           0
     34630 TIP3     5760     TIP3     H2       HT       0.417000       1.00800           0
     34631 TIP3     5761     TIP3     OH2      OT      -0.834000       15.9994           0
     34632 TIP3     5761     TIP3     H1       HT       0.417000       1.00800           0
     34633 TIP3     5761     TIP3     H2       HT       0.417000       1.00800           0
     34634 TIP3     5762     TIP3     OH2      OT      -0.834000       15.9994           0
     34635 TIP3     5762     TIP3     H1       HT       0.417000       1.00800           0
     34636 TIP3     5762     TIP3     H2       HT       0.417000       1.00800           0
     34637 TIP3     5763     TIP3     OH2      OT      -0.834000       15.9994           0
     34638 TIP3     5763     TIP3     H1       HT       0.417000       1.00800           0
     34639 TIP3     5763     TIP3     H2       HT       0.417000       1.00800           0
     34640 TIP3     5764     TIP3     OH2      OT      -0.834000       15.9994           0
     34641 TIP3     5764     TIP3     H1       HT       0.417000       1.00800           0
     34642 TIP3     5764     TIP3     H2       HT       0.417000       1.00800           0
     34643 TIP3     5765     TIP3     OH2      OT      -0.834000       15.9994           0
     34644 TIP3     5765     TIP3     H1       HT       0.417000       1.00800           0
     34645 TIP3     5765     TIP3     H2       HT       0.417000       1.00800           0
     34646 TIP3     5766     TIP3     OH2      OT      -0.834000       15.9994           0
     34647 TIP3     5766     TIP3     H1       HT       0.417000       1.00800           0
     34648 TIP3     5766     TIP3     H2       HT       0.417000       1.00800           0
     34649 TIP3     5767     TIP3     OH2      OT      -0.834000       15.9994           0
     34650 TIP3     5767     TIP3     H1       HT       0.417000       1.00800           0
     34651 TIP3     5767     TIP3     H2       HT       0.417000       1.00800           0
     34652 TIP3     5768     TIP3     OH2      OT      -0.834000       15.9994           0
     34653 TIP3     5768     TIP3     H1       HT       0.417000       1.00800           0
     34654 TIP3     5768     TIP3     H2       HT       0.417000       1.00800           0
     34655 TIP3     5769     TIP3     OH2      OT      -0.834000       15.9994           0
     34656 TIP3     5769     TIP3     H1       HT       0.417000       1.00800           0
     34657 TIP3     5769     TIP3     H2       HT       0.417000       1.00800           0
     34658 TIP3     5770     TIP3     OH2      OT      -0.834000       15.9994           0
     34659 TIP3     5770     TIP3     H1       HT       0.417000       1.00800           0
     34660 TIP3     5770     TIP3     H2       HT       0.417000       1.00800           0
     34661 TIP3     5771     TIP3     OH2      OT      -0.834000       15.9994           0
     34662 TIP3     5771     TIP3     H1       HT       0.417000       1.00800           0
     34663 TIP3     5771     TIP3     H2       HT       0.417000       1.00800           0
     34664 TIP3     5772     TIP3     OH2      OT      -0.834000       15.9994           0
     34665 TIP3     5772     TIP3     H1       HT       0.417000       1.00800           0
     34666 TIP3     5772     TIP3     H2       HT       0.417000       1.00800           0
     34667 TIP3     5773     TIP3     OH2      OT      -0.834000       15.9994           0
     34668 TIP3     5773     TIP3     H1       HT       0.417000       1.00800           0
     34669 TIP3     5773     TIP3     H2       HT       0.417000       1.00800           0
     34670 TIP3     5774     TIP3     OH2      OT      -0.834000       15.9994           0
     34671 TIP3     5774     TIP3     H1       HT       0.417000       1.00800           0
     34672 TIP3     5774     TIP3     H2       HT       0.417000       1.00800           0
     34673 TIP3     5775     TIP3     OH2      OT      -0.834000       15.9994           0
     34674 TIP3     5775     TIP3     H1       HT       0.417000       1.00800           0
     34675 TIP3     5775     TIP3     H2       HT       0.417000       1.00800           0
     34676 TIP3     5776     TIP3     OH2      OT      -0.834000       15.9994           0
     34677 TIP3     5776     TIP3     H1       HT       0.417000       1.00800           0
     34678 TIP3     5776     TIP3     H2       HT       0.417000       1.00800           0
     34679 TIP3     5777     TIP3     OH2      OT      -0.834000       15.9994           0
     34680 TIP3     5777     TIP3     H1       HT       0.417000       1.00800           0
     34681 TIP3     5777     TIP3     H2       HT       0.417000       1.00800           0
     34682 TIP3     5778     TIP3     OH2      OT      -0.834000       15.9994           0
     34683 TIP3     5778     TIP3     H1       HT       0.417000       1.00800           0
     34684 TIP3     5778     TIP3     H2       HT       0.417000       1.00800           0
     34685 TIP3     5779     TIP3     OH2      OT      -0.834000       15.9994           0
     34686 TIP3     5779     TIP3     H1       HT       0.417000       1.00800           0
     34687 TIP3     5779     TIP3     H2       HT       0.417000       1.00800           0
     34688 TIP3     5780     TIP3     OH2      OT      -0.834000       15.9994           0
     34689 TIP3     5780     TIP3     H1       HT       0.417000       1.00800           0
     34690 TIP3     5780     TIP3     H2       HT       0.417000       1.00800           0
     34691 TIP3     5781     TIP3     OH2      OT      -0.834000       15.9994           0
     34692 TIP3     5781     TIP3     H1       HT       0.417000       1.00800           0
     34693 TIP3     5781     TIP3     H2       HT       0.417000       1.00800           0
     34694 TIP3     5782     TIP3     OH2      OT      -0.834000       15.9994           0
     34695 TIP3     5782     TIP3     H1       HT       0.417000       1.00800           0
     34696 TIP3     5782     TIP3     H2       HT       0.417000       1.00800           0
     34697 TIP3     5783     TIP3     OH2      OT      -0.834000       15.9994           0
     34698 TIP3     5783     TIP3     H1       HT       0.417000       1.00800           0
     34699 TIP3     5783     TIP3     H2       HT       0.417000       1.00800           0
     34700 TIP3     5784     TIP3     OH2      OT      -0.834000       15.9994           0
     34701 TIP3     5784     TIP3     H1       HT       0.417000       1.00800           0
     34702 TIP3     5784     TIP3     H2       HT       0.417000       1.00800           0
     34703 TIP3     5785     TIP3     OH2      OT      -0.834000       15.9994           0
     34704 TIP3     5785     TIP3     H1       HT       0.417000       1.00800           0
     34705 TIP3     5785     TIP3     H2       HT       0.417000       1.00800           0
     34706 TIP3     5786     TIP3     OH2      OT      -0.834000       15.9994           0
     34707 TIP3     5786     TIP3     H1       HT       0.417000       1.00800           0
     34708 TIP3     5786     TIP3     H2       HT       0.417000       1.00800           0
     34709 TIP3     5787     TIP3     OH2      OT      -0.834000       15.9994           0
     34710 TIP3     5787     TIP3     H1       HT       0.417000       1.00800           0
     34711 TIP3     5787     TIP3     H2       HT       0.417000       1.00800           0
     34712 TIP3     5788     TIP3     OH2      OT      -0.834000       15.9994           0
     34713 TIP3     5788     TIP3     H1       HT       0.417000       1.00800           0
     34714 TIP3     5788     TIP3     H2       HT       0.417000       1.00800           0
     34715 TIP3     5789     TIP3     OH2      OT      -0.834000       15.9994           0
     34716 TIP3     5789     TIP3     H1       HT       0.417000       1.00800           0
     34717 TIP3     5789     TIP3     H2       HT       0.417000       1.00800           0
     34718 TIP3     5790     TIP3     OH2      OT      -0.834000       15.9994           0
     34719 TIP3     5790     TIP3     H1       HT       0.417000       1.00800           0
     34720 TIP3     5790     TIP3     H2       HT       0.417000       1.00800           0
     34721 TIP3     5791     TIP3     OH2      OT      -0.834000       15.9994           0
     34722 TIP3     5791     TIP3     H1       HT       0.417000       1.00800           0
     34723 TIP3     5791     TIP3     H2       HT       0.417000       1.00800           0
     34724 TIP3     5792     TIP3     OH2      OT      -0.834000       15.9994           0
     34725 TIP3     5792     TIP3     H1       HT       0.417000       1.00800           0
     34726 TIP3     5792     TIP3     H2       HT       0.417000       1.00800           0
     34727 TIP3     5793     TIP3     OH2      OT      -0.834000       15.9994           0
     34728 TIP3     5793     TIP3     H1       HT       0.417000       1.00800           0
     34729 TIP3     5793     TIP3     H2       HT       0.417000       1.00800           0
     34730 TIP3     5794     TIP3     OH2      OT      -0.834000       15.9994           0
     34731 TIP3     5794     TIP3     H1       HT       0.417000       1.00800           0
     34732 TIP3     5794     TIP3     H2       HT       0.417000       1.00800           0
     34733 TIP3     5795     TIP3     OH2      OT      -0.834000       15.9994           0
     34734 TIP3     5795     TIP3     H1       HT       0.417000       1.00800           0
     34735 TIP3     5795     TIP3     H2       HT       0.417000       1.00800           0
     34736 TIP3     5796     TIP3     OH2      OT      -0.834000       15.9994           0
     34737 TIP3     5796     TIP3     H1       HT       0.417000       1.00800           0
     34738 TIP3     5796     TIP3     H2       HT       0.417000       1.00800           0
     34739 TIP3     5797     TIP3     OH2      OT      -0.834000       15.9994           0
     34740 TIP3     5797     TIP3     H1       HT       0.417000       1.00800           0
     34741 TIP3     5797     TIP3     H2       HT       0.417000       1.00800           0
     34742 TIP3     5798     TIP3     OH2      OT      -0.834000       15.9994           0
     34743 TIP3     5798     TIP3     H1       HT       0.417000       1.00800           0
     34744 TIP3     5798     TIP3     H2       HT       0.417000       1.00800           0
     34745 TIP3     5799     TIP3     OH2      OT      -0.834000       15.9994           0
     34746 TIP3     5799     TIP3     H1       HT       0.417000       1.00800           0
     34747 TIP3     5799     TIP3     H2       HT       0.417000       1.00800           0
     34748 TIP3     5800     TIP3     OH2      OT      -0.834000       15.9994           0
     34749 TIP3     5800     TIP3     H1       HT       0.417000       1.00800           0
     34750 TIP3     5800     TIP3     H2       HT       0.417000       1.00800           0
     34751 TIP3     5801     TIP3     OH2      OT      -0.834000       15.9994           0
     34752 TIP3     5801     TIP3     H1       HT       0.417000       1.00800           0
     34753 TIP3     5801     TIP3     H2       HT       0.417000       1.00800           0
     34754 TIP3     5802     TIP3     OH2      OT      -0.834000       15.9994           0
     34755 TIP3     5802     TIP3     H1       HT       0.417000       1.00800           0
     34756 TIP3     5802     TIP3     H2       HT       0.417000       1.00800           0
     34757 TIP3     5803     TIP3     OH2      OT      -0.834000       15.9994           0
     34758 TIP3     5803     TIP3     H1       HT       0.417000       1.00800           0
     34759 TIP3     5803     TIP3     H2       HT       0.417000       1.00800           0
     34760 TIP3     5804     TIP3     OH2      OT      -0.834000       15.9994           0
     34761 TIP3     5804     TIP3     H1       HT       0.417000       1.00800           0
     34762 TIP3     5804     TIP3     H2       HT       0.417000       1.00800           0
     34763 TIP3     5805     TIP3     OH2      OT      -0.834000       15.9994           0
     34764 TIP3     5805     TIP3     H1       HT       0.417000       1.00800           0
     34765 TIP3     5805     TIP3     H2       HT       0.417000       1.00800           0
     34766 TIP3     5806     TIP3     OH2      OT      -0.834000       15.9994           0
     34767 TIP3     5806     TIP3     H1       HT       0.417000       1.00800           0
     34768 TIP3     5806     TIP3     H2       HT       0.417000       1.00800           0
     34769 TIP3     5807     TIP3     OH2      OT      -0.834000       15.9994           0
     34770 TIP3     5807     TIP3     H1       HT       0.417000       1.00800           0
     34771 TIP3     5807     TIP3     H2       HT       0.417000       1.00800           0
     34772 TIP3     5808     TIP3     OH2      OT      -0.834000       15.9994           0
     34773 TIP3     5808     TIP3     H1       HT       0.417000       1.00800           0
     34774 TIP3     5808     TIP3     H2       HT       0.417000       1.00800           0
     34775 TIP3     5809     TIP3     OH2      OT      -0.834000       15.9994           0
     34776 TIP3     5809     TIP3     H1       HT       0.417000       1.00800           0
     34777 TIP3     5809     TIP3     H2       HT       0.417000       1.00800           0
     34778 TIP3     5810     TIP3     OH2      OT      -0.834000       15.9994           0
     34779 TIP3     5810     TIP3     H1       HT       0.417000       1.00800           0
     34780 TIP3     5810     TIP3     H2       HT       0.417000       1.00800           0
     34781 TIP3     5811     TIP3     OH2      OT      -0.834000       15.9994           0
     34782 TIP3     5811     TIP3     H1       HT       0.417000       1.00800           0
     34783 TIP3     5811     TIP3     H2       HT       0.417000       1.00800           0
     34784 TIP3     5812     TIP3     OH2      OT      -0.834000       15.9994           0
     34785 TIP3     5812     TIP3     H1       HT       0.417000       1.00800           0
     34786 TIP3     5812     TIP3     H2       HT       0.417000       1.00800           0
     34787 TIP3     5813     TIP3     OH2      OT      -0.834000       15.9994           0
     34788 TIP3     5813     TIP3     H1       HT       0.417000       1.00800           0
     34789 TIP3     5813     TIP3     H2       HT       0.417000       1.00800           0
     34790 TIP3     5814     TIP3     OH2      OT      -0.834000       15.9994           0
     34791 TIP3     5814     TIP3     H1       HT       0.417000       1.00800           0
     34792 TIP3     5814     TIP3     H2       HT       0.417000       1.00800           0
     34793 TIP3     5815     TIP3     OH2      OT      -0.834000       15.9994           0
     34794 TIP3     5815     TIP3     H1       HT       0.417000       1.00800           0
     34795 TIP3     5815     TIP3     H2       HT       0.417000       1.00800           0
     34796 TIP3     5816     TIP3     OH2      OT      -0.834000       15.9994           0
     34797 TIP3     5816     TIP3     H1       HT       0.417000       1.00800           0
     34798 TIP3     5816     TIP3     H2       HT       0.417000       1.00800           0
     34799 TIP3     5817     TIP3     OH2      OT      -0.834000       15.9994           0
     34800 TIP3     5817     TIP3     H1       HT       0.417000       1.00800           0
     34801 TIP3     5817     TIP3     H2       HT       0.417000       1.00800           0
     34802 TIP3     5818     TIP3     OH2      OT      -0.834000       15.9994           0
     34803 TIP3     5818     TIP3     H1       HT       0.417000       1.00800           0
     34804 TIP3     5818     TIP3     H2       HT       0.417000       1.00800           0
     34805 TIP3     5819     TIP3     OH2      OT      -0.834000       15.9994           0
     34806 TIP3     5819     TIP3     H1       HT       0.417000       1.00800           0
     34807 TIP3     5819     TIP3     H2       HT       0.417000       1.00800           0
     34808 TIP3     5820     TIP3     OH2      OT      -0.834000       15.9994           0
     34809 TIP3     5820     TIP3     H1       HT       0.417000       1.00800           0
     34810 TIP3     5820     TIP3     H2       HT       0.417000       1.00800           0
     34811 TIP3     5821     TIP3     OH2      OT      -0.834000       15.9994           0
     34812 TIP3     5821     TIP3     H1       HT       0.417000       1.00800           0
     34813 TIP3     5821     TIP3     H2       HT       0.417000       1.00800           0
     34814 TIP3     5822     TIP3     OH2      OT      -0.834000       15.9994           0
     34815 TIP3     5822     TIP3     H1       HT       0.417000       1.00800           0
     34816 TIP3     5822     TIP3     H2       HT       0.417000       1.00800           0
     34817 TIP3     5823     TIP3     OH2      OT      -0.834000       15.9994           0
     34818 TIP3     5823     TIP3     H1       HT       0.417000       1.00800           0
     34819 TIP3     5823     TIP3     H2       HT       0.417000       1.00800           0
     34820 TIP3     5824     TIP3     OH2      OT      -0.834000       15.9994           0
     34821 TIP3     5824     TIP3     H1       HT       0.417000       1.00800           0
     34822 TIP3     5824     TIP3     H2       HT       0.417000       1.00800           0
     34823 TIP3     5825     TIP3     OH2      OT      -0.834000       15.9994           0
     34824 TIP3     5825     TIP3     H1       HT       0.417000       1.00800           0
     34825 TIP3     5825     TIP3     H2       HT       0.417000       1.00800           0
     34826 TIP3     5826     TIP3     OH2      OT      -0.834000       15.9994           0
     34827 TIP3     5826     TIP3     H1       HT       0.417000       1.00800           0
     34828 TIP3     5826     TIP3     H2       HT       0.417000       1.00800           0
     34829 TIP3     5827     TIP3     OH2      OT      -0.834000       15.9994           0
     34830 TIP3     5827     TIP3     H1       HT       0.417000       1.00800           0
     34831 TIP3     5827     TIP3     H2       HT       0.417000       1.00800           0
     34832 TIP3     5828     TIP3     OH2      OT      -0.834000       15.9994           0
     34833 TIP3     5828     TIP3     H1       HT       0.417000       1.00800           0
     34834 TIP3     5828     TIP3     H2       HT       0.417000       1.00800           0
     34835 TIP3     5829     TIP3     OH2      OT      -0.834000       15.9994           0
     34836 TIP3     5829     TIP3     H1       HT       0.417000       1.00800           0
     34837 TIP3     5829     TIP3     H2       HT       0.417000       1.00800           0
     34838 TIP3     5830     TIP3     OH2      OT      -0.834000       15.9994           0
     34839 TIP3     5830     TIP3     H1       HT       0.417000       1.00800           0
     34840 TIP3     5830     TIP3     H2       HT       0.417000       1.00800           0
     34841 TIP3     5831     TIP3     OH2      OT      -0.834000       15.9994           0
     34842 TIP3     5831     TIP3     H1       HT       0.417000       1.00800           0
     34843 TIP3     5831     TIP3     H2       HT       0.417000       1.00800           0
     34844 TIP3     5832     TIP3     OH2      OT      -0.834000       15.9994           0
     34845 TIP3     5832     TIP3     H1       HT       0.417000       1.00800           0
     34846 TIP3     5832     TIP3     H2       HT       0.417000       1.00800           0
     34847 TIP3     5833     TIP3     OH2      OT      -0.834000       15.9994           0
     34848 TIP3     5833     TIP3     H1       HT       0.417000       1.00800           0
     34849 TIP3     5833     TIP3     H2       HT       0.417000       1.00800           0
     34850 TIP3     5834     TIP3     OH2      OT      -0.834000       15.9994           0
     34851 TIP3     5834     TIP3     H1       HT       0.417000       1.00800           0
     34852 TIP3     5834     TIP3     H2       HT       0.417000       1.00800           0
     34853 TIP3     5835     TIP3     OH2      OT      -0.834000       15.9994           0
     34854 TIP3     5835     TIP3     H1       HT       0.417000       1.00800           0
     34855 TIP3     5835     TIP3     H2       HT       0.417000       1.00800           0
     34856 TIP3     5836     TIP3     OH2      OT      -0.834000       15.9994           0
     34857 TIP3     5836     TIP3     H1       HT       0.417000       1.00800           0
     34858 TIP3     5836     TIP3     H2       HT       0.417000       1.00800           0
     34859 TIP3     5837     TIP3     OH2      OT      -0.834000       15.9994           0
     34860 TIP3     5837     TIP3     H1       HT       0.417000       1.00800           0
     34861 TIP3     5837     TIP3     H2       HT       0.417000       1.00800           0
     34862 TIP3     5838     TIP3     OH2      OT      -0.834000       15.9994           0
     34863 TIP3     5838     TIP3     H1       HT       0.417000       1.00800           0
     34864 TIP3     5838     TIP3     H2       HT       0.417000       1.00800           0
     34865 TIP3     5839     TIP3     OH2      OT      -0.834000       15.9994           0
     34866 TIP3     5839     TIP3     H1       HT       0.417000       1.00800           0
     34867 TIP3     5839     TIP3     H2       HT       0.417000       1.00800           0
     34868 TIP3     5840     TIP3     OH2      OT      -0.834000       15.9994           0
     34869 TIP3     5840     TIP3     H1       HT       0.417000       1.00800           0
     34870 TIP3     5840     TIP3     H2       HT       0.417000       1.00800           0
     34871 TIP3     5841     TIP3     OH2      OT      -0.834000       15.9994           0
     34872 TIP3     5841     TIP3     H1       HT       0.417000       1.00800           0
     34873 TIP3     5841     TIP3     H2       HT       0.417000       1.00800           0
     34874 TIP3     5842     TIP3     OH2      OT      -0.834000       15.9994           0
     34875 TIP3     5842     TIP3     H1       HT       0.417000       1.00800           0
     34876 TIP3     5842     TIP3     H2       HT       0.417000       1.00800           0
     34877 TIP3     5843     TIP3     OH2      OT      -0.834000       15.9994           0
     34878 TIP3     5843     TIP3     H1       HT       0.417000       1.00800           0
     34879 TIP3     5843     TIP3     H2       HT       0.417000       1.00800           0
     34880 TIP3     5844     TIP3     OH2      OT      -0.834000       15.9994           0
     34881 TIP3     5844     TIP3     H1       HT       0.417000       1.00800           0
     34882 TIP3     5844     TIP3     H2       HT       0.417000       1.00800           0
     34883 TIP3     5845     TIP3     OH2      OT      -0.834000       15.9994           0
     34884 TIP3     5845     TIP3     H1       HT       0.417000       1.00800           0
     34885 TIP3     5845     TIP3     H2       HT       0.417000       1.00800           0
     34886 TIP3     5846     TIP3     OH2      OT      -0.834000       15.9994           0
     34887 TIP3     5846     TIP3     H1       HT       0.417000       1.00800           0
     34888 TIP3     5846     TIP3     H2       HT       0.417000       1.00800           0
     34889 TIP3     5847     TIP3     OH2      OT      -0.834000       15.9994           0
     34890 TIP3     5847     TIP3     H1       HT       0.417000       1.00800           0
     34891 TIP3     5847     TIP3     H2       HT       0.417000       1.00800           0
     34892 TIP3     5848     TIP3     OH2      OT      -0.834000       15.9994           0
     34893 TIP3     5848     TIP3     H1       HT       0.417000       1.00800           0
     34894 TIP3     5848     TIP3     H2       HT       0.417000       1.00800           0
     34895 TIP3     5849     TIP3     OH2      OT      -0.834000       15.9994           0
     34896 TIP3     5849     TIP3     H1       HT       0.417000       1.00800           0
     34897 TIP3     5849     TIP3     H2       HT       0.417000       1.00800           0
     34898 TIP3     5850     TIP3     OH2      OT      -0.834000       15.9994           0
     34899 TIP3     5850     TIP3     H1       HT       0.417000       1.00800           0
     34900 TIP3     5850     TIP3     H2       HT       0.417000       1.00800           0
     34901 TIP3     5851     TIP3     OH2      OT      -0.834000       15.9994           0
     34902 TIP3     5851     TIP3     H1       HT       0.417000       1.00800           0
     34903 TIP3     5851     TIP3     H2       HT       0.417000       1.00800           0
     34904 TIP3     5852     TIP3     OH2      OT      -0.834000       15.9994           0
     34905 TIP3     5852     TIP3     H1       HT       0.417000       1.00800           0
     34906 TIP3     5852     TIP3     H2       HT       0.417000       1.00800           0
     34907 TIP3     5853     TIP3     OH2      OT      -0.834000       15.9994           0
     34908 TIP3     5853     TIP3     H1       HT       0.417000       1.00800           0
     34909 TIP3     5853     TIP3     H2       HT       0.417000       1.00800           0
     34910 TIP3     5854     TIP3     OH2      OT      -0.834000       15.9994           0
     34911 TIP3     5854     TIP3     H1       HT       0.417000       1.00800           0
     34912 TIP3     5854     TIP3     H2       HT       0.417000       1.00800           0
     34913 TIP3     5855     TIP3     OH2      OT      -0.834000       15.9994           0
     34914 TIP3     5855     TIP3     H1       HT       0.417000       1.00800           0
     34915 TIP3     5855     TIP3     H2       HT       0.417000       1.00800           0
     34916 TIP3     5856     TIP3     OH2      OT      -0.834000       15.9994           0
     34917 TIP3     5856     TIP3     H1       HT       0.417000       1.00800           0
     34918 TIP3     5856     TIP3     H2       HT       0.417000       1.00800           0
     34919 TIP3     5857     TIP3     OH2      OT      -0.834000       15.9994           0
     34920 TIP3     5857     TIP3     H1       HT       0.417000       1.00800           0
     34921 TIP3     5857     TIP3     H2       HT       0.417000       1.00800           0
     34922 TIP3     5858     TIP3     OH2      OT      -0.834000       15.9994           0
     34923 TIP3     5858     TIP3     H1       HT       0.417000       1.00800           0
     34924 TIP3     5858     TIP3     H2       HT       0.417000       1.00800           0
     34925 TIP3     5859     TIP3     OH2      OT      -0.834000       15.9994           0
     34926 TIP3     5859     TIP3     H1       HT       0.417000       1.00800           0
     34927 TIP3     5859     TIP3     H2       HT       0.417000       1.00800           0
     34928 TIP3     5860     TIP3     OH2      OT      -0.834000       15.9994           0
     34929 TIP3     5860     TIP3     H1       HT       0.417000       1.00800           0
     34930 TIP3     5860     TIP3     H2       HT       0.417000       1.00800           0
     34931 TIP3     5861     TIP3     OH2      OT      -0.834000       15.9994           0
     34932 TIP3     5861     TIP3     H1       HT       0.417000       1.00800           0
     34933 TIP3     5861     TIP3     H2       HT       0.417000       1.00800           0
     34934 TIP3     5862     TIP3     OH2      OT      -0.834000       15.9994           0
     34935 TIP3     5862     TIP3     H1       HT       0.417000       1.00800           0
     34936 TIP3     5862     TIP3     H2       HT       0.417000       1.00800           0
     34937 TIP3     5863     TIP3     OH2      OT      -0.834000       15.9994           0
     34938 TIP3     5863     TIP3     H1       HT       0.417000       1.00800           0
     34939 TIP3     5863     TIP3     H2       HT       0.417000       1.00800           0
     34940 TIP3     5864     TIP3     OH2      OT      -0.834000       15.9994           0
     34941 TIP3     5864     TIP3     H1       HT       0.417000       1.00800           0
     34942 TIP3     5864     TIP3     H2       HT       0.417000       1.00800           0
     34943 TIP3     5865     TIP3     OH2      OT      -0.834000       15.9994           0
     34944 TIP3     5865     TIP3     H1       HT       0.417000       1.00800           0
     34945 TIP3     5865     TIP3     H2       HT       0.417000       1.00800           0
     34946 TIP3     5866     TIP3     OH2      OT      -0.834000       15.9994           0
     34947 TIP3     5866     TIP3     H1       HT       0.417000       1.00800           0
     34948 TIP3     5866     TIP3     H2       HT       0.417000       1.00800           0
     34949 TIP3     5867     TIP3     OH2      OT      -0.834000       15.9994           0
     34950 TIP3     5867     TIP3     H1       HT       0.417000       1.00800           0
     34951 TIP3     5867     TIP3     H2       HT       0.417000       1.00800           0
     34952 TIP3     5868     TIP3     OH2      OT      -0.834000       15.9994           0
     34953 TIP3     5868     TIP3     H1       HT       0.417000       1.00800           0
     34954 TIP3     5868     TIP3     H2       HT       0.417000       1.00800           0
     34955 TIP3     5869     TIP3     OH2      OT      -0.834000       15.9994           0
     34956 TIP3     5869     TIP3     H1       HT       0.417000       1.00800           0
     34957 TIP3     5869     TIP3     H2       HT       0.417000       1.00800           0
     34958 TIP3     5870     TIP3     OH2      OT      -0.834000       15.9994           0
     34959 TIP3     5870     TIP3     H1       HT       0.417000       1.00800           0
     34960 TIP3     5870     TIP3     H2       HT       0.417000       1.00800           0
     34961 TIP3     5871     TIP3     OH2      OT      -0.834000       15.9994           0
     34962 TIP3     5871     TIP3     H1       HT       0.417000       1.00800           0
     34963 TIP3     5871     TIP3     H2       HT       0.417000       1.00800           0
     34964 TIP3     5872     TIP3     OH2      OT      -0.834000       15.9994           0
     34965 TIP3     5872     TIP3     H1       HT       0.417000       1.00800           0
     34966 TIP3     5872     TIP3     H2       HT       0.417000       1.00800           0
     34967 TIP3     5873     TIP3     OH2      OT      -0.834000       15.9994           0
     34968 TIP3     5873     TIP3     H1       HT       0.417000       1.00800           0
     34969 TIP3     5873     TIP3     H2       HT       0.417000       1.00800           0
     34970 TIP3     5874     TIP3     OH2      OT      -0.834000       15.9994           0
     34971 TIP3     5874     TIP3     H1       HT       0.417000       1.00800           0
     34972 TIP3     5874     TIP3     H2       HT       0.417000       1.00800           0
     34973 TIP3     5875     TIP3     OH2      OT      -0.834000       15.9994           0
     34974 TIP3     5875     TIP3     H1       HT       0.417000       1.00800           0
     34975 TIP3     5875     TIP3     H2       HT       0.417000       1.00800           0
     34976 TIP3     5876     TIP3     OH2      OT      -0.834000       15.9994           0
     34977 TIP3     5876     TIP3     H1       HT       0.417000       1.00800           0
     34978 TIP3     5876     TIP3     H2       HT       0.417000       1.00800           0
     34979 TIP3     5877     TIP3     OH2      OT      -0.834000       15.9994           0
     34980 TIP3     5877     TIP3     H1       HT       0.417000       1.00800           0
     34981 TIP3     5877     TIP3     H2       HT       0.417000       1.00800           0
     34982 TIP3     5878     TIP3     OH2      OT      -0.834000       15.9994           0
     34983 TIP3     5878     TIP3     H1       HT       0.417000       1.00800           0
     34984 TIP3     5878     TIP3     H2       HT       0.417000       1.00800           0
     34985 TIP3     5879     TIP3     OH2      OT      -0.834000       15.9994           0
     34986 TIP3     5879     TIP3     H1       HT       0.417000       1.00800           0
     34987 TIP3     5879     TIP3     H2       HT       0.417000       1.00800           0
     34988 TIP3     5880     TIP3     OH2      OT      -0.834000       15.9994           0
     34989 TIP3     5880     TIP3     H1       HT       0.417000       1.00800           0
     34990 TIP3     5880     TIP3     H2       HT       0.417000       1.00800           0
     34991 TIP3     5881     TIP3     OH2      OT      -0.834000       15.9994           0
     34992 TIP3     5881     TIP3     H1       HT       0.417000       1.00800           0
     34993 TIP3     5881     TIP3     H2       HT       0.417000       1.00800           0
     34994 TIP3     5882     TIP3     OH2      OT      -0.834000       15.9994           0
     34995 TIP3     5882     TIP3     H1       HT       0.417000       1.00800           0
     34996 TIP3     5882     TIP3     H2       HT       0.417000       1.00800           0
     34997 TIP3     5883     TIP3     OH2      OT      -0.834000       15.9994           0
     34998 TIP3     5883     TIP3     H1       HT       0.417000       1.00800           0
     34999 TIP3     5883     TIP3     H2       HT       0.417000       1.00800           0
     35000 TIP3     5884     TIP3     OH2      OT      -0.834000       15.9994           0
     35001 TIP3     5884     TIP3     H1       HT       0.417000       1.00800           0
     35002 TIP3     5884     TIP3     H2       HT       0.417000       1.00800           0
     35003 TIP3     5885     TIP3     OH2      OT      -0.834000       15.9994           0
     35004 TIP3     5885     TIP3     H1       HT       0.417000       1.00800           0
     35005 TIP3     5885     TIP3     H2       HT       0.417000       1.00800           0
     35006 TIP3     5886     TIP3     OH2      OT      -0.834000       15.9994           0
     35007 TIP3     5886     TIP3     H1       HT       0.417000       1.00800           0
     35008 TIP3     5886     TIP3     H2       HT       0.417000       1.00800           0
     35009 TIP3     5887     TIP3     OH2      OT      -0.834000       15.9994           0
     35010 TIP3     5887     TIP3     H1       HT       0.417000       1.00800           0
     35011 TIP3     5887     TIP3     H2       HT       0.417000       1.00800           0
     35012 TIP3     5888     TIP3     OH2      OT      -0.834000       15.9994           0
     35013 TIP3     5888     TIP3     H1       HT       0.417000       1.00800           0
     35014 TIP3     5888     TIP3     H2       HT       0.417000       1.00800           0
     35015 TIP3     5889     TIP3     OH2      OT      -0.834000       15.9994           0
     35016 TIP3     5889     TIP3     H1       HT       0.417000       1.00800           0
     35017 TIP3     5889     TIP3     H2       HT       0.417000       1.00800           0
     35018 TIP3     5890     TIP3     OH2      OT      -0.834000       15.9994           0
     35019 TIP3     5890     TIP3     H1       HT       0.417000       1.00800           0
     35020 TIP3     5890     TIP3     H2       HT       0.417000       1.00800           0
     35021 TIP3     5891     TIP3     OH2      OT      -0.834000       15.9994           0
     35022 TIP3     5891     TIP3     H1       HT       0.417000       1.00800           0
     35023 TIP3     5891     TIP3     H2       HT       0.417000       1.00800           0
     35024 TIP3     5892     TIP3     OH2      OT      -0.834000       15.9994           0
     35025 TIP3     5892     TIP3     H1       HT       0.417000       1.00800           0
     35026 TIP3     5892     TIP3     H2       HT       0.417000       1.00800           0
     35027 TIP3     5893     TIP3     OH2      OT      -0.834000       15.9994           0
     35028 TIP3     5893     TIP3     H1       HT       0.417000       1.00800           0
     35029 TIP3     5893     TIP3     H2       HT       0.417000       1.00800           0
     35030 TIP3     5894     TIP3     OH2      OT      -0.834000       15.9994           0
     35031 TIP3     5894     TIP3     H1       HT       0.417000       1.00800           0
     35032 TIP3     5894     TIP3     H2       HT       0.417000       1.00800           0
     35033 TIP3     5895     TIP3     OH2      OT      -0.834000       15.9994           0
     35034 TIP3     5895     TIP3     H1       HT       0.417000       1.00800           0
     35035 TIP3     5895     TIP3     H2       HT       0.417000       1.00800           0
     35036 TIP3     5896     TIP3     OH2      OT      -0.834000       15.9994           0
     35037 TIP3     5896     TIP3     H1       HT       0.417000       1.00800           0
     35038 TIP3     5896     TIP3     H2       HT       0.417000       1.00800           0
     35039 TIP3     5897     TIP3     OH2      OT      -0.834000       15.9994           0
     35040 TIP3     5897     TIP3     H1       HT       0.417000       1.00800           0
     35041 TIP3     5897     TIP3     H2       HT       0.417000       1.00800           0
     35042 TIP3     5898     TIP3     OH2      OT      -0.834000       15.9994           0
     35043 TIP3     5898     TIP3     H1       HT       0.417000       1.00800           0
     35044 TIP3     5898     TIP3     H2       HT       0.417000       1.00800           0
     35045 TIP3     5899     TIP3     OH2      OT      -0.834000       15.9994           0
     35046 TIP3     5899     TIP3     H1       HT       0.417000       1.00800           0
     35047 TIP3     5899     TIP3     H2       HT       0.417000       1.00800           0
     35048 TIP3     5900     TIP3     OH2      OT      -0.834000       15.9994           0
     35049 TIP3     5900     TIP3     H1       HT       0.417000       1.00800           0
     35050 TIP3     5900     TIP3     H2       HT       0.417000       1.00800           0
     35051 TIP3     5901     TIP3     OH2      OT      -0.834000       15.9994           0
     35052 TIP3     5901     TIP3     H1       HT       0.417000       1.00800           0
     35053 TIP3     5901     TIP3     H2       HT       0.417000       1.00800           0
     35054 TIP3     5902     TIP3     OH2      OT      -0.834000       15.9994           0
     35055 TIP3     5902     TIP3     H1       HT       0.417000       1.00800           0
     35056 TIP3     5902     TIP3     H2       HT       0.417000       1.00800           0
     35057 TIP3     5903     TIP3     OH2      OT      -0.834000       15.9994           0
     35058 TIP3     5903     TIP3     H1       HT       0.417000       1.00800           0
     35059 TIP3     5903     TIP3     H2       HT       0.417000       1.00800           0
     35060 TIP3     5904     TIP3     OH2      OT      -0.834000       15.9994           0
     35061 TIP3     5904     TIP3     H1       HT       0.417000       1.00800           0
     35062 TIP3     5904     TIP3     H2       HT       0.417000       1.00800           0
     35063 TIP3     5905     TIP3     OH2      OT      -0.834000       15.9994           0
     35064 TIP3     5905     TIP3     H1       HT       0.417000       1.00800           0
     35065 TIP3     5905     TIP3     H2       HT       0.417000       1.00800           0
     35066 TIP3     5906     TIP3     OH2      OT      -0.834000       15.9994           0
     35067 TIP3     5906     TIP3     H1       HT       0.417000       1.00800           0
     35068 TIP3     5906     TIP3     H2       HT       0.417000       1.00800           0
     35069 TIP3     5907     TIP3     OH2      OT      -0.834000       15.9994           0
     35070 TIP3     5907     TIP3     H1       HT       0.417000       1.00800           0
     35071 TIP3     5907     TIP3     H2       HT       0.417000       1.00800           0
     35072 TIP3     5908     TIP3     OH2      OT      -0.834000       15.9994           0
     35073 TIP3     5908     TIP3     H1       HT       0.417000       1.00800           0
     35074 TIP3     5908     TIP3     H2       HT       0.417000       1.00800           0
     35075 TIP3     5909     TIP3     OH2      OT      -0.834000       15.9994           0
     35076 TIP3     5909     TIP3     H1       HT       0.417000       1.00800           0
     35077 TIP3     5909     TIP3     H2       HT       0.417000       1.00800           0
     35078 TIP3     5910     TIP3     OH2      OT      -0.834000       15.9994           0
     35079 TIP3     5910     TIP3     H1       HT       0.417000       1.00800           0
     35080 TIP3     5910     TIP3     H2       HT       0.417000       1.00800           0
     35081 TIP3     5911     TIP3     OH2      OT      -0.834000       15.9994           0
     35082 TIP3     5911     TIP3     H1       HT       0.417000       1.00800           0
     35083 TIP3     5911     TIP3     H2       HT       0.417000       1.00800           0
     35084 TIP3     5912     TIP3     OH2      OT      -0.834000       15.9994           0
     35085 TIP3     5912     TIP3     H1       HT       0.417000       1.00800           0
     35086 TIP3     5912     TIP3     H2       HT       0.417000       1.00800           0
     35087 TIP3     5913     TIP3     OH2      OT      -0.834000       15.9994           0
     35088 TIP3     5913     TIP3     H1       HT       0.417000       1.00800           0
     35089 TIP3     5913     TIP3     H2       HT       0.417000       1.00800           0
     35090 TIP3     5914     TIP3     OH2      OT      -0.834000       15.9994           0
     35091 TIP3     5914     TIP3     H1       HT       0.417000       1.00800           0
     35092 TIP3     5914     TIP3     H2       HT       0.417000       1.00800           0
     35093 TIP3     5915     TIP3     OH2      OT      -0.834000       15.9994           0
     35094 TIP3     5915     TIP3     H1       HT       0.417000       1.00800           0
     35095 TIP3     5915     TIP3     H2       HT       0.417000       1.00800           0
     35096 TIP3     5916     TIP3     OH2      OT      -0.834000       15.9994           0
     35097 TIP3     5916     TIP3     H1       HT       0.417000       1.00800           0
     35098 TIP3     5916     TIP3     H2       HT       0.417000       1.00800           0
     35099 TIP3     5917     TIP3     OH2      OT      -0.834000       15.9994           0
     35100 TIP3     5917     TIP3     H1       HT       0.417000       1.00800           0
     35101 TIP3     5917     TIP3     H2       HT       0.417000       1.00800           0
     35102 TIP3     5918     TIP3     OH2      OT      -0.834000       15.9994           0
     35103 TIP3     5918     TIP3     H1       HT       0.417000       1.00800           0
     35104 TIP3     5918     TIP3     H2       HT       0.417000       1.00800           0
     35105 TIP3     5919     TIP3     OH2      OT      -0.834000       15.9994           0
     35106 TIP3     5919     TIP3     H1       HT       0.417000       1.00800           0
     35107 TIP3     5919     TIP3     H2       HT       0.417000       1.00800           0
     35108 TIP3     5920     TIP3     OH2      OT      -0.834000       15.9994           0
     35109 TIP3     5920     TIP3     H1       HT       0.417000       1.00800           0
     35110 TIP3     5920     TIP3     H2       HT       0.417000       1.00800           0
     35111 TIP3     5921     TIP3     OH2      OT      -0.834000       15.9994           0
     35112 TIP3     5921     TIP3     H1       HT       0.417000       1.00800           0
     35113 TIP3     5921     TIP3     H2       HT       0.417000       1.00800           0
     35114 TIP3     5922     TIP3     OH2      OT      -0.834000       15.9994           0
     35115 TIP3     5922     TIP3     H1       HT       0.417000       1.00800           0
     35116 TIP3     5922     TIP3     H2       HT       0.417000       1.00800           0
     35117 TIP3     5923     TIP3     OH2      OT      -0.834000       15.9994           0
     35118 TIP3     5923     TIP3     H1       HT       0.417000       1.00800           0
     35119 TIP3     5923     TIP3     H2       HT       0.417000       1.00800           0
     35120 TIP3     5924     TIP3     OH2      OT      -0.834000       15.9994           0
     35121 TIP3     5924     TIP3     H1       HT       0.417000       1.00800           0
     35122 TIP3     5924     TIP3     H2       HT       0.417000       1.00800           0
     35123 TIP3     5925     TIP3     OH2      OT      -0.834000       15.9994           0
     35124 TIP3     5925     TIP3     H1       HT       0.417000       1.00800           0
     35125 TIP3     5925     TIP3     H2       HT       0.417000       1.00800           0
     35126 TIP3     5926     TIP3     OH2      OT      -0.834000       15.9994           0
     35127 TIP3     5926     TIP3     H1       HT       0.417000       1.00800           0
     35128 TIP3     5926     TIP3     H2       HT       0.417000       1.00800           0
     35129 TIP3     5927     TIP3     OH2      OT      -0.834000       15.9994           0
     35130 TIP3     5927     TIP3     H1       HT       0.417000       1.00800           0
     35131 TIP3     5927     TIP3     H2       HT       0.417000       1.00800           0
     35132 TIP3     5928     TIP3     OH2      OT      -0.834000       15.9994           0
     35133 TIP3     5928     TIP3     H1       HT       0.417000       1.00800           0
     35134 TIP3     5928     TIP3     H2       HT       0.417000       1.00800           0
     35135 TIP3     5929     TIP3     OH2      OT      -0.834000       15.9994           0
     35136 TIP3     5929     TIP3     H1       HT       0.417000       1.00800           0
     35137 TIP3     5929     TIP3     H2       HT       0.417000       1.00800           0
     35138 TIP3     5930     TIP3     OH2      OT      -0.834000       15.9994           0
     35139 TIP3     5930     TIP3     H1       HT       0.417000       1.00800           0
     35140 TIP3     5930     TIP3     H2       HT       0.417000       1.00800           0
     35141 TIP3     5931     TIP3     OH2      OT      -0.834000       15.9994           0
     35142 TIP3     5931     TIP3     H1       HT       0.417000       1.00800           0
     35143 TIP3     5931     TIP3     H2       HT       0.417000       1.00800           0
     35144 TIP3     5932     TIP3     OH2      OT      -0.834000       15.9994           0
     35145 TIP3     5932     TIP3     H1       HT       0.417000       1.00800           0
     35146 TIP3     5932     TIP3     H2       HT       0.417000       1.00800           0
     35147 TIP3     5933     TIP3     OH2      OT      -0.834000       15.9994           0
     35148 TIP3     5933     TIP3     H1       HT       0.417000       1.00800           0
     35149 TIP3     5933     TIP3     H2       HT       0.417000       1.00800           0
     35150 TIP3     5934     TIP3     OH2      OT      -0.834000       15.9994           0
     35151 TIP3     5934     TIP3     H1       HT       0.417000       1.00800           0
     35152 TIP3     5934     TIP3     H2       HT       0.417000       1.00800           0
     35153 TIP3     5935     TIP3     OH2      OT      -0.834000       15.9994           0
     35154 TIP3     5935     TIP3     H1       HT       0.417000       1.00800           0
     35155 TIP3     5935     TIP3     H2       HT       0.417000       1.00800           0
     35156 TIP3     5936     TIP3     OH2      OT      -0.834000       15.9994           0
     35157 TIP3     5936     TIP3     H1       HT       0.417000       1.00800           0
     35158 TIP3     5936     TIP3     H2       HT       0.417000       1.00800           0
     35159 TIP3     5937     TIP3     OH2      OT      -0.834000       15.9994           0
     35160 TIP3     5937     TIP3     H1       HT       0.417000       1.00800           0
     35161 TIP3     5937     TIP3     H2       HT       0.417000       1.00800           0
     35162 TIP3     5938     TIP3     OH2      OT      -0.834000       15.9994           0
     35163 TIP3     5938     TIP3     H1       HT       0.417000       1.00800           0
     35164 TIP3     5938     TIP3     H2       HT       0.417000       1.00800           0
     35165 TIP3     5939     TIP3     OH2      OT      -0.834000       15.9994           0
     35166 TIP3     5939     TIP3     H1       HT       0.417000       1.00800           0
     35167 TIP3     5939     TIP3     H2       HT       0.417000       1.00800           0
     35168 TIP3     5940     TIP3     OH2      OT      -0.834000       15.9994           0
     35169 TIP3     5940     TIP3     H1       HT       0.417000       1.00800           0
     35170 TIP3     5940     TIP3     H2       HT       0.417000       1.00800           0
     35171 TIP3     5941     TIP3     OH2      OT      -0.834000       15.9994           0
     35172 TIP3     5941     TIP3     H1       HT       0.417000       1.00800           0
     35173 TIP3     5941     TIP3     H2       HT       0.417000       1.00800           0
     35174 TIP3     5942     TIP3     OH2      OT      -0.834000       15.9994           0
     35175 TIP3     5942     TIP3     H1       HT       0.417000       1.00800           0
     35176 TIP3     5942     TIP3     H2       HT       0.417000       1.00800           0
     35177 TIP3     5943     TIP3     OH2      OT      -0.834000       15.9994           0
     35178 TIP3     5943     TIP3     H1       HT       0.417000       1.00800           0
     35179 TIP3     5943     TIP3     H2       HT       0.417000       1.00800           0
     35180 TIP3     5944     TIP3     OH2      OT      -0.834000       15.9994           0
     35181 TIP3     5944     TIP3     H1       HT       0.417000       1.00800           0
     35182 TIP3     5944     TIP3     H2       HT       0.417000       1.00800           0
     35183 TIP3     5945     TIP3     OH2      OT      -0.834000       15.9994           0
     35184 TIP3     5945     TIP3     H1       HT       0.417000       1.00800           0
     35185 TIP3     5945     TIP3     H2       HT       0.417000       1.00800           0
     35186 TIP3     5946     TIP3     OH2      OT      -0.834000       15.9994           0
     35187 TIP3     5946     TIP3     H1       HT       0.417000       1.00800           0
     35188 TIP3     5946     TIP3     H2       HT       0.417000       1.00800           0
     35189 TIP3     5947     TIP3     OH2      OT      -0.834000       15.9994           0
     35190 TIP3     5947     TIP3     H1       HT       0.417000       1.00800           0
     35191 TIP3     5947     TIP3     H2       HT       0.417000       1.00800           0
     35192 TIP3     5948     TIP3     OH2      OT      -0.834000       15.9994           0
     35193 TIP3     5948     TIP3     H1       HT       0.417000       1.00800           0
     35194 TIP3     5948     TIP3     H2       HT       0.417000       1.00800           0
     35195 TIP3     5949     TIP3     OH2      OT      -0.834000       15.9994           0
     35196 TIP3     5949     TIP3     H1       HT       0.417000       1.00800           0
     35197 TIP3     5949     TIP3     H2       HT       0.417000       1.00800           0
     35198 TIP3     5950     TIP3     OH2      OT      -0.834000       15.9994           0
     35199 TIP3     5950     TIP3     H1       HT       0.417000       1.00800           0
     35200 TIP3     5950     TIP3     H2       HT       0.417000       1.00800           0
     35201 TIP3     5951     TIP3     OH2      OT      -0.834000       15.9994           0
     35202 TIP3     5951     TIP3     H1       HT       0.417000       1.00800           0
     35203 TIP3     5951     TIP3     H2       HT       0.417000       1.00800           0
     35204 TIP3     5952     TIP3     OH2      OT      -0.834000       15.9994           0
     35205 TIP3     5952     TIP3     H1       HT       0.417000       1.00800           0
     35206 TIP3     5952     TIP3     H2       HT       0.417000       1.00800           0
     35207 TIP3     5953     TIP3     OH2      OT      -0.834000       15.9994           0
     35208 TIP3     5953     TIP3     H1       HT       0.417000       1.00800           0
     35209 TIP3     5953     TIP3     H2       HT       0.417000       1.00800           0
     35210 TIP3     5954     TIP3     OH2      OT      -0.834000       15.9994           0
     35211 TIP3     5954     TIP3     H1       HT       0.417000       1.00800           0
     35212 TIP3     5954     TIP3     H2       HT       0.417000       1.00800           0
     35213 TIP3     5955     TIP3     OH2      OT      -0.834000       15.9994           0
     35214 TIP3     5955     TIP3     H1       HT       0.417000       1.00800           0
     35215 TIP3     5955     TIP3     H2       HT       0.417000       1.00800           0
     35216 TIP3     5956     TIP3     OH2      OT      -0.834000       15.9994           0
     35217 TIP3     5956     TIP3     H1       HT       0.417000       1.00800           0
     35218 TIP3     5956     TIP3     H2       HT       0.417000       1.00800           0
     35219 TIP3     5957     TIP3     OH2      OT      -0.834000       15.9994           0
     35220 TIP3     5957     TIP3     H1       HT       0.417000       1.00800           0
     35221 TIP3     5957     TIP3     H2       HT       0.417000       1.00800           0
     35222 TIP3     5958     TIP3     OH2      OT      -0.834000       15.9994           0
     35223 TIP3     5958     TIP3     H1       HT       0.417000       1.00800           0
     35224 TIP3     5958     TIP3     H2       HT       0.417000       1.00800           0
     35225 TIP3     5959     TIP3     OH2      OT      -0.834000       15.9994           0
     35226 TIP3     5959     TIP3     H1       HT       0.417000       1.00800           0
     35227 TIP3     5959     TIP3     H2       HT       0.417000       1.00800           0
     35228 TIP3     5960     TIP3     OH2      OT      -0.834000       15.9994           0
     35229 TIP3     5960     TIP3     H1       HT       0.417000       1.00800           0
     35230 TIP3     5960     TIP3     H2       HT       0.417000       1.00800           0
     35231 TIP3     5961     TIP3     OH2      OT      -0.834000       15.9994           0
     35232 TIP3     5961     TIP3     H1       HT       0.417000       1.00800           0
     35233 TIP3     5961     TIP3     H2       HT       0.417000       1.00800           0
     35234 TIP3     5962     TIP3     OH2      OT      -0.834000       15.9994           0
     35235 TIP3     5962     TIP3     H1       HT       0.417000       1.00800           0
     35236 TIP3     5962     TIP3     H2       HT       0.417000       1.00800           0
     35237 TIP3     5963     TIP3     OH2      OT      -0.834000       15.9994           0
     35238 TIP3     5963     TIP3     H1       HT       0.417000       1.00800           0
     35239 TIP3     5963     TIP3     H2       HT       0.417000       1.00800           0
     35240 TIP3     5964     TIP3     OH2      OT      -0.834000       15.9994           0
     35241 TIP3     5964     TIP3     H1       HT       0.417000       1.00800           0
     35242 TIP3     5964     TIP3     H2       HT       0.417000       1.00800           0
     35243 TIP3     5965     TIP3     OH2      OT      -0.834000       15.9994           0
     35244 TIP3     5965     TIP3     H1       HT       0.417000       1.00800           0
     35245 TIP3     5965     TIP3     H2       HT       0.417000       1.00800           0
     35246 TIP3     5966     TIP3     OH2      OT      -0.834000       15.9994           0
     35247 TIP3     5966     TIP3     H1       HT       0.417000       1.00800           0
     35248 TIP3     5966     TIP3     H2       HT       0.417000       1.00800           0
     35249 TIP3     5967     TIP3     OH2      OT      -0.834000       15.9994           0
     35250 TIP3     5967     TIP3     H1       HT       0.417000       1.00800           0
     35251 TIP3     5967     TIP3     H2       HT       0.417000       1.00800           0
     35252 TIP3     5968     TIP3     OH2      OT      -0.834000       15.9994           0
     35253 TIP3     5968     TIP3     H1       HT       0.417000       1.00800           0
     35254 TIP3     5968     TIP3     H2       HT       0.417000       1.00800           0
     35255 TIP3     5969     TIP3     OH2      OT      -0.834000       15.9994           0
     35256 TIP3     5969     TIP3     H1       HT       0.417000       1.00800           0
     35257 TIP3     5969     TIP3     H2       HT       0.417000       1.00800           0
     35258 TIP3     5970     TIP3     OH2      OT      -0.834000       15.9994           0
     35259 TIP3     5970     TIP3     H1       HT       0.417000       1.00800           0
     35260 TIP3     5970     TIP3     H2       HT       0.417000       1.00800           0
     35261 TIP3     5971     TIP3     OH2      OT      -0.834000       15.9994           0
     35262 TIP3     5971     TIP3     H1       HT       0.417000       1.00800           0
     35263 TIP3     5971     TIP3     H2       HT       0.417000       1.00800           0
     35264 TIP3     5972     TIP3     OH2      OT      -0.834000       15.9994           0
     35265 TIP3     5972     TIP3     H1       HT       0.417000       1.00800           0
     35266 TIP3     5972     TIP3     H2       HT       0.417000       1.00800           0
     35267 TIP3     5973     TIP3     OH2      OT      -0.834000       15.9994           0
     35268 TIP3     5973     TIP3     H1       HT       0.417000       1.00800           0
     35269 TIP3     5973     TIP3     H2       HT       0.417000       1.00800           0
     35270 TIP3     5974     TIP3     OH2      OT      -0.834000       15.9994           0
     35271 TIP3     5974     TIP3     H1       HT       0.417000       1.00800           0
     35272 TIP3     5974     TIP3     H2       HT       0.417000       1.00800           0
     35273 TIP3     5975     TIP3     OH2      OT      -0.834000       15.9994           0
     35274 TIP3     5975     TIP3     H1       HT       0.417000       1.00800           0
     35275 TIP3     5975     TIP3     H2       HT       0.417000       1.00800           0
     35276 TIP3     5976     TIP3     OH2      OT      -0.834000       15.9994           0
     35277 TIP3     5976     TIP3     H1       HT       0.417000       1.00800           0
     35278 TIP3     5976     TIP3     H2       HT       0.417000       1.00800           0
     35279 TIP3     5977     TIP3     OH2      OT      -0.834000       15.9994           0
     35280 TIP3     5977     TIP3     H1       HT       0.417000       1.00800           0
     35281 TIP3     5977     TIP3     H2       HT       0.417000       1.00800           0
     35282 TIP3     5978     TIP3     OH2      OT      -0.834000       15.9994           0
     35283 TIP3     5978     TIP3     H1       HT       0.417000       1.00800           0
     35284 TIP3     5978     TIP3     H2       HT       0.417000       1.00800           0
     35285 TIP3     5979     TIP3     OH2      OT      -0.834000       15.9994           0
     35286 TIP3     5979     TIP3     H1       HT       0.417000       1.00800           0
     35287 TIP3     5979     TIP3     H2       HT       0.417000       1.00800           0
     35288 TIP3     5980     TIP3     OH2      OT      -0.834000       15.9994           0
     35289 TIP3     5980     TIP3     H1       HT       0.417000       1.00800           0
     35290 TIP3     5980     TIP3     H2       HT       0.417000       1.00800           0
     35291 TIP3     5981     TIP3     OH2      OT      -0.834000       15.9994           0
     35292 TIP3     5981     TIP3     H1       HT       0.417000       1.00800           0
     35293 TIP3     5981     TIP3     H2       HT       0.417000       1.00800           0
     35294 TIP3     5982     TIP3     OH2      OT      -0.834000       15.9994           0
     35295 TIP3     5982     TIP3     H1       HT       0.417000       1.00800           0
     35296 TIP3     5982     TIP3     H2       HT       0.417000       1.00800           0
     35297 TIP3     5983     TIP3     OH2      OT      -0.834000       15.9994           0
     35298 TIP3     5983     TIP3     H1       HT       0.417000       1.00800           0
     35299 TIP3     5983     TIP3     H2       HT       0.417000       1.00800           0
     35300 TIP3     5984     TIP3     OH2      OT      -0.834000       15.9994           0
     35301 TIP3     5984     TIP3     H1       HT       0.417000       1.00800           0
     35302 TIP3     5984     TIP3     H2       HT       0.417000       1.00800           0
     35303 TIP3     5985     TIP3     OH2      OT      -0.834000       15.9994           0
     35304 TIP3     5985     TIP3     H1       HT       0.417000       1.00800           0
     35305 TIP3     5985     TIP3     H2       HT       0.417000       1.00800           0
     35306 TIP3     5986     TIP3     OH2      OT      -0.834000       15.9994           0
     35307 TIP3     5986     TIP3     H1       HT       0.417000       1.00800           0
     35308 TIP3     5986     TIP3     H2       HT       0.417000       1.00800           0
     35309 TIP3     5987     TIP3     OH2      OT      -0.834000       15.9994           0
     35310 TIP3     5987     TIP3     H1       HT       0.417000       1.00800           0
     35311 TIP3     5987     TIP3     H2       HT       0.417000       1.00800           0
     35312 TIP3     5988     TIP3     OH2      OT      -0.834000       15.9994           0
     35313 TIP3     5988     TIP3     H1       HT       0.417000       1.00800           0
     35314 TIP3     5988     TIP3     H2       HT       0.417000       1.00800           0
     35315 TIP3     5989     TIP3     OH2      OT      -0.834000       15.9994           0
     35316 TIP3     5989     TIP3     H1       HT       0.417000       1.00800           0
     35317 TIP3     5989     TIP3     H2       HT       0.417000       1.00800           0
     35318 TIP3     5990     TIP3     OH2      OT      -0.834000       15.9994           0
     35319 TIP3     5990     TIP3     H1       HT       0.417000       1.00800           0
     35320 TIP3     5990     TIP3     H2       HT       0.417000       1.00800           0
     35321 TIP3     5991     TIP3     OH2      OT      -0.834000       15.9994           0
     35322 TIP3     5991     TIP3     H1       HT       0.417000       1.00800           0
     35323 TIP3     5991     TIP3     H2       HT       0.417000       1.00800           0
     35324 TIP3     5992     TIP3     OH2      OT      -0.834000       15.9994           0
     35325 TIP3     5992     TIP3     H1       HT       0.417000       1.00800           0
     35326 TIP3     5992     TIP3     H2       HT       0.417000       1.00800           0
     35327 TIP3     5993     TIP3     OH2      OT      -0.834000       15.9994           0
     35328 TIP3     5993     TIP3     H1       HT       0.417000       1.00800           0
     35329 TIP3     5993     TIP3     H2       HT       0.417000       1.00800           0
     35330 TIP3     5994     TIP3     OH2      OT      -0.834000       15.9994           0
     35331 TIP3     5994     TIP3     H1       HT       0.417000       1.00800           0
     35332 TIP3     5994     TIP3     H2       HT       0.417000       1.00800           0
     35333 TIP3     5995     TIP3     OH2      OT      -0.834000       15.9994           0
     35334 TIP3     5995     TIP3     H1       HT       0.417000       1.00800           0
     35335 TIP3     5995     TIP3     H2       HT       0.417000       1.00800           0
     35336 TIP3     5996     TIP3     OH2      OT      -0.834000       15.9994           0
     35337 TIP3     5996     TIP3     H1       HT       0.417000       1.00800           0
     35338 TIP3     5996     TIP3     H2       HT       0.417000       1.00800           0
     35339 TIP3     5997     TIP3     OH2      OT      -0.834000       15.9994           0
     35340 TIP3     5997     TIP3     H1       HT       0.417000       1.00800           0
     35341 TIP3     5997     TIP3     H2       HT       0.417000       1.00800           0
     35342 TIP3     5998     TIP3     OH2      OT      -0.834000       15.9994           0
     35343 TIP3     5998     TIP3     H1       HT       0.417000       1.00800           0
     35344 TIP3     5998     TIP3     H2       HT       0.417000       1.00800           0
     35345 TIP3     5999     TIP3     OH2      OT      -0.834000       15.9994           0
     35346 TIP3     5999     TIP3     H1       HT       0.417000       1.00800           0
     35347 TIP3     5999     TIP3     H2       HT       0.417000       1.00800           0
     35348 TIP3     6000     TIP3     OH2      OT      -0.834000       15.9994           0
     35349 TIP3     6000     TIP3     H1       HT       0.417000       1.00800           0
     35350 TIP3     6000     TIP3     H2       HT       0.417000       1.00800           0
     35351 TIP3     6001     TIP3     OH2      OT      -0.834000       15.9994           0
     35352 TIP3     6001     TIP3     H1       HT       0.417000       1.00800           0
     35353 TIP3     6001     TIP3     H2       HT       0.417000       1.00800           0
     35354 TIP3     6002     TIP3     OH2      OT      -0.834000       15.9994           0
     35355 TIP3     6002     TIP3     H1       HT       0.417000       1.00800           0
     35356 TIP3     6002     TIP3     H2       HT       0.417000       1.00800           0
     35357 TIP3     6003     TIP3     OH2      OT      -0.834000       15.9994           0
     35358 TIP3     6003     TIP3     H1       HT       0.417000       1.00800           0
     35359 TIP3     6003     TIP3     H2       HT       0.417000       1.00800           0
     35360 TIP3     6004     TIP3     OH2      OT      -0.834000       15.9994           0
     35361 TIP3     6004     TIP3     H1       HT       0.417000       1.00800           0
     35362 TIP3     6004     TIP3     H2       HT       0.417000       1.00800           0
     35363 TIP3     6005     TIP3     OH2      OT      -0.834000       15.9994           0
     35364 TIP3     6005     TIP3     H1       HT       0.417000       1.00800           0
     35365 TIP3     6005     TIP3     H2       HT       0.417000       1.00800           0
     35366 TIP3     6006     TIP3     OH2      OT      -0.834000       15.9994           0
     35367 TIP3     6006     TIP3     H1       HT       0.417000       1.00800           0
     35368 TIP3     6006     TIP3     H2       HT       0.417000       1.00800           0
     35369 TIP3     6007     TIP3     OH2      OT      -0.834000       15.9994           0
     35370 TIP3     6007     TIP3     H1       HT       0.417000       1.00800           0
     35371 TIP3     6007     TIP3     H2       HT       0.417000       1.00800           0
     35372 TIP3     6008     TIP3     OH2      OT      -0.834000       15.9994           0
     35373 TIP3     6008     TIP3     H1       HT       0.417000       1.00800           0
     35374 TIP3     6008     TIP3     H2       HT       0.417000       1.00800           0
     35375 TIP3     6009     TIP3     OH2      OT      -0.834000       15.9994           0
     35376 TIP3     6009     TIP3     H1       HT       0.417000       1.00800           0
     35377 TIP3     6009     TIP3     H2       HT       0.417000       1.00800           0
     35378 TIP3     6010     TIP3     OH2      OT      -0.834000       15.9994           0
     35379 TIP3     6010     TIP3     H1       HT       0.417000       1.00800           0
     35380 TIP3     6010     TIP3     H2       HT       0.417000       1.00800           0
     35381 TIP3     6011     TIP3     OH2      OT      -0.834000       15.9994           0
     35382 TIP3     6011     TIP3     H1       HT       0.417000       1.00800           0
     35383 TIP3     6011     TIP3     H2       HT       0.417000       1.00800           0
     35384 TIP3     6012     TIP3     OH2      OT      -0.834000       15.9994           0
     35385 TIP3     6012     TIP3     H1       HT       0.417000       1.00800           0
     35386 TIP3     6012     TIP3     H2       HT       0.417000       1.00800           0
     35387 TIP3     6013     TIP3     OH2      OT      -0.834000       15.9994           0
     35388 TIP3     6013     TIP3     H1       HT       0.417000       1.00800           0
     35389 TIP3     6013     TIP3     H2       HT       0.417000       1.00800           0
     35390 TIP3     6014     TIP3     OH2      OT      -0.834000       15.9994           0
     35391 TIP3     6014     TIP3     H1       HT       0.417000       1.00800           0
     35392 TIP3     6014     TIP3     H2       HT       0.417000       1.00800           0
     35393 TIP3     6015     TIP3     OH2      OT      -0.834000       15.9994           0
     35394 TIP3     6015     TIP3     H1       HT       0.417000       1.00800           0
     35395 TIP3     6015     TIP3     H2       HT       0.417000       1.00800           0
     35396 TIP3     6016     TIP3     OH2      OT      -0.834000       15.9994           0
     35397 TIP3     6016     TIP3     H1       HT       0.417000       1.00800           0
     35398 TIP3     6016     TIP3     H2       HT       0.417000       1.00800           0
     35399 TIP3     6017     TIP3     OH2      OT      -0.834000       15.9994           0
     35400 TIP3     6017     TIP3     H1       HT       0.417000       1.00800           0
     35401 TIP3     6017     TIP3     H2       HT       0.417000       1.00800           0
     35402 TIP3     6018     TIP3     OH2      OT      -0.834000       15.9994           0
     35403 TIP3     6018     TIP3     H1       HT       0.417000       1.00800           0
     35404 TIP3     6018     TIP3     H2       HT       0.417000       1.00800           0
     35405 TIP3     6019     TIP3     OH2      OT      -0.834000       15.9994           0
     35406 TIP3     6019     TIP3     H1       HT       0.417000       1.00800           0
     35407 TIP3     6019     TIP3     H2       HT       0.417000       1.00800           0
     35408 TIP3     6020     TIP3     OH2      OT      -0.834000       15.9994           0
     35409 TIP3     6020     TIP3     H1       HT       0.417000       1.00800           0
     35410 TIP3     6020     TIP3     H2       HT       0.417000       1.00800           0
     35411 TIP3     6021     TIP3     OH2      OT      -0.834000       15.9994           0
     35412 TIP3     6021     TIP3     H1       HT       0.417000       1.00800           0
     35413 TIP3     6021     TIP3     H2       HT       0.417000       1.00800           0
     35414 TIP3     6022     TIP3     OH2      OT      -0.834000       15.9994           0
     35415 TIP3     6022     TIP3     H1       HT       0.417000       1.00800           0
     35416 TIP3     6022     TIP3     H2       HT       0.417000       1.00800           0
     35417 TIP3     6023     TIP3     OH2      OT      -0.834000       15.9994           0
     35418 TIP3     6023     TIP3     H1       HT       0.417000       1.00800           0
     35419 TIP3     6023     TIP3     H2       HT       0.417000       1.00800           0
     35420 TIP3     6024     TIP3     OH2      OT      -0.834000       15.9994           0
     35421 TIP3     6024     TIP3     H1       HT       0.417000       1.00800           0
     35422 TIP3     6024     TIP3     H2       HT       0.417000       1.00800           0
     35423 TIP3     6025     TIP3     OH2      OT      -0.834000       15.9994           0
     35424 TIP3     6025     TIP3     H1       HT       0.417000       1.00800           0
     35425 TIP3     6025     TIP3     H2       HT       0.417000       1.00800           0
     35426 TIP3     6026     TIP3     OH2      OT      -0.834000       15.9994           0
     35427 TIP3     6026     TIP3     H1       HT       0.417000       1.00800           0
     35428 TIP3     6026     TIP3     H2       HT       0.417000       1.00800           0
     35429 TIP3     6027     TIP3     OH2      OT      -0.834000       15.9994           0
     35430 TIP3     6027     TIP3     H1       HT       0.417000       1.00800           0
     35431 TIP3     6027     TIP3     H2       HT       0.417000       1.00800           0
     35432 TIP3     6028     TIP3     OH2      OT      -0.834000       15.9994           0
     35433 TIP3     6028     TIP3     H1       HT       0.417000       1.00800           0
     35434 TIP3     6028     TIP3     H2       HT       0.417000       1.00800           0
     35435 TIP3     6029     TIP3     OH2      OT      -0.834000       15.9994           0
     35436 TIP3     6029     TIP3     H1       HT       0.417000       1.00800           0
     35437 TIP3     6029     TIP3     H2       HT       0.417000       1.00800           0
     35438 TIP3     6030     TIP3     OH2      OT      -0.834000       15.9994           0
     35439 TIP3     6030     TIP3     H1       HT       0.417000       1.00800           0
     35440 TIP3     6030     TIP3     H2       HT       0.417000       1.00800           0
     35441 TIP3     6031     TIP3     OH2      OT      -0.834000       15.9994           0
     35442 TIP3     6031     TIP3     H1       HT       0.417000       1.00800           0
     35443 TIP3     6031     TIP3     H2       HT       0.417000       1.00800           0
     35444 TIP3     6032     TIP3     OH2      OT      -0.834000       15.9994           0
     35445 TIP3     6032     TIP3     H1       HT       0.417000       1.00800           0
     35446 TIP3     6032     TIP3     H2       HT       0.417000       1.00800           0
     35447 TIP3     6033     TIP3     OH2      OT      -0.834000       15.9994           0
     35448 TIP3     6033     TIP3     H1       HT       0.417000       1.00800           0
     35449 TIP3     6033     TIP3     H2       HT       0.417000       1.00800           0
     35450 TIP3     6034     TIP3     OH2      OT      -0.834000       15.9994           0
     35451 TIP3     6034     TIP3     H1       HT       0.417000       1.00800           0
     35452 TIP3     6034     TIP3     H2       HT       0.417000       1.00800           0
     35453 TIP3     6035     TIP3     OH2      OT      -0.834000       15.9994           0
     35454 TIP3     6035     TIP3     H1       HT       0.417000       1.00800           0
     35455 TIP3     6035     TIP3     H2       HT       0.417000       1.00800           0
     35456 TIP3     6036     TIP3     OH2      OT      -0.834000       15.9994           0
     35457 TIP3     6036     TIP3     H1       HT       0.417000       1.00800           0
     35458 TIP3     6036     TIP3     H2       HT       0.417000       1.00800           0
     35459 TIP3     6037     TIP3     OH2      OT      -0.834000       15.9994           0
     35460 TIP3     6037     TIP3     H1       HT       0.417000       1.00800           0
     35461 TIP3     6037     TIP3     H2       HT       0.417000       1.00800           0
     35462 TIP3     6038     TIP3     OH2      OT      -0.834000       15.9994           0
     35463 TIP3     6038     TIP3     H1       HT       0.417000       1.00800           0
     35464 TIP3     6038     TIP3     H2       HT       0.417000       1.00800           0
     35465 TIP3     6039     TIP3     OH2      OT      -0.834000       15.9994           0
     35466 TIP3     6039     TIP3     H1       HT       0.417000       1.00800           0
     35467 TIP3     6039     TIP3     H2       HT       0.417000       1.00800           0
     35468 TIP3     6040     TIP3     OH2      OT      -0.834000       15.9994           0
     35469 TIP3     6040     TIP3     H1       HT       0.417000       1.00800           0
     35470 TIP3     6040     TIP3     H2       HT       0.417000       1.00800           0
     35471 TIP3     6041     TIP3     OH2      OT      -0.834000       15.9994           0
     35472 TIP3     6041     TIP3     H1       HT       0.417000       1.00800           0
     35473 TIP3     6041     TIP3     H2       HT       0.417000       1.00800           0
     35474 TIP3     6042     TIP3     OH2      OT      -0.834000       15.9994           0
     35475 TIP3     6042     TIP3     H1       HT       0.417000       1.00800           0
     35476 TIP3     6042     TIP3     H2       HT       0.417000       1.00800           0
     35477 TIP3     6043     TIP3     OH2      OT      -0.834000       15.9994           0
     35478 TIP3     6043     TIP3     H1       HT       0.417000       1.00800           0
     35479 TIP3     6043     TIP3     H2       HT       0.417000       1.00800           0
     35480 TIP3     6044     TIP3     OH2      OT      -0.834000       15.9994           0
     35481 TIP3     6044     TIP3     H1       HT       0.417000       1.00800           0
     35482 TIP3     6044     TIP3     H2       HT       0.417000       1.00800           0
     35483 TIP3     6045     TIP3     OH2      OT      -0.834000       15.9994           0
     35484 TIP3     6045     TIP3     H1       HT       0.417000       1.00800           0
     35485 TIP3     6045     TIP3     H2       HT       0.417000       1.00800           0
     35486 TIP3     6046     TIP3     OH2      OT      -0.834000       15.9994           0
     35487 TIP3     6046     TIP3     H1       HT       0.417000       1.00800           0
     35488 TIP3     6046     TIP3     H2       HT       0.417000       1.00800           0
     35489 TIP3     6047     TIP3     OH2      OT      -0.834000       15.9994           0
     35490 TIP3     6047     TIP3     H1       HT       0.417000       1.00800           0
     35491 TIP3     6047     TIP3     H2       HT       0.417000       1.00800           0
     35492 TIP3     6048     TIP3     OH2      OT      -0.834000       15.9994           0
     35493 TIP3     6048     TIP3     H1       HT       0.417000       1.00800           0
     35494 TIP3     6048     TIP3     H2       HT       0.417000       1.00800           0
     35495 TIP3     6049     TIP3     OH2      OT      -0.834000       15.9994           0
     35496 TIP3     6049     TIP3     H1       HT       0.417000       1.00800           0
     35497 TIP3     6049     TIP3     H2       HT       0.417000       1.00800           0
     35498 TIP3     6050     TIP3     OH2      OT      -0.834000       15.9994           0
     35499 TIP3     6050     TIP3     H1       HT       0.417000       1.00800           0
     35500 TIP3     6050     TIP3     H2       HT       0.417000       1.00800           0
     35501 TIP3     6051     TIP3     OH2      OT      -0.834000       15.9994           0
     35502 TIP3     6051     TIP3     H1       HT       0.417000       1.00800           0
     35503 TIP3     6051     TIP3     H2       HT       0.417000       1.00800           0
     35504 TIP3     6052     TIP3     OH2      OT      -0.834000       15.9994           0
     35505 TIP3     6052     TIP3     H1       HT       0.417000       1.00800           0
     35506 TIP3     6052     TIP3     H2       HT       0.417000       1.00800           0
     35507 TIP3     6053     TIP3     OH2      OT      -0.834000       15.9994           0
     35508 TIP3     6053     TIP3     H1       HT       0.417000       1.00800           0
     35509 TIP3     6053     TIP3     H2       HT       0.417000       1.00800           0
     35510 TIP3     6054     TIP3     OH2      OT      -0.834000       15.9994           0
     35511 TIP3     6054     TIP3     H1       HT       0.417000       1.00800           0
     35512 TIP3     6054     TIP3     H2       HT       0.417000       1.00800           0
     35513 TIP3     6055     TIP3     OH2      OT      -0.834000       15.9994           0
     35514 TIP3     6055     TIP3     H1       HT       0.417000       1.00800           0
     35515 TIP3     6055     TIP3     H2       HT       0.417000       1.00800           0
     35516 TIP3     6056     TIP3     OH2      OT      -0.834000       15.9994           0
     35517 TIP3     6056     TIP3     H1       HT       0.417000       1.00800           0
     35518 TIP3     6056     TIP3     H2       HT       0.417000       1.00800           0
     35519 TIP3     6057     TIP3     OH2      OT      -0.834000       15.9994           0
     35520 TIP3     6057     TIP3     H1       HT       0.417000       1.00800           0
     35521 TIP3     6057     TIP3     H2       HT       0.417000       1.00800           0
     35522 TIP3     6058     TIP3     OH2      OT      -0.834000       15.9994           0
     35523 TIP3     6058     TIP3     H1       HT       0.417000       1.00800           0
     35524 TIP3     6058     TIP3     H2       HT       0.417000       1.00800           0
     35525 TIP3     6059     TIP3     OH2      OT      -0.834000       15.9994           0
     35526 TIP3     6059     TIP3     H1       HT       0.417000       1.00800           0
     35527 TIP3     6059     TIP3     H2       HT       0.417000       1.00800           0
     35528 TIP3     6060     TIP3     OH2      OT      -0.834000       15.9994           0
     35529 TIP3     6060     TIP3     H1       HT       0.417000       1.00800           0
     35530 TIP3     6060     TIP3     H2       HT       0.417000       1.00800           0
     35531 TIP3     6061     TIP3     OH2      OT      -0.834000       15.9994           0
     35532 TIP3     6061     TIP3     H1       HT       0.417000       1.00800           0
     35533 TIP3     6061     TIP3     H2       HT       0.417000       1.00800           0
     35534 TIP3     6062     TIP3     OH2      OT      -0.834000       15.9994           0
     35535 TIP3     6062     TIP3     H1       HT       0.417000       1.00800           0
     35536 TIP3     6062     TIP3     H2       HT       0.417000       1.00800           0
     35537 TIP3     6063     TIP3     OH2      OT      -0.834000       15.9994           0
     35538 TIP3     6063     TIP3     H1       HT       0.417000       1.00800           0
     35539 TIP3     6063     TIP3     H2       HT       0.417000       1.00800           0
     35540 TIP3     6064     TIP3     OH2      OT      -0.834000       15.9994           0
     35541 TIP3     6064     TIP3     H1       HT       0.417000       1.00800           0
     35542 TIP3     6064     TIP3     H2       HT       0.417000       1.00800           0
     35543 TIP3     6065     TIP3     OH2      OT      -0.834000       15.9994           0
     35544 TIP3     6065     TIP3     H1       HT       0.417000       1.00800           0
     35545 TIP3     6065     TIP3     H2       HT       0.417000       1.00800           0
     35546 TIP3     6066     TIP3     OH2      OT      -0.834000       15.9994           0
     35547 TIP3     6066     TIP3     H1       HT       0.417000       1.00800           0
     35548 TIP3     6066     TIP3     H2       HT       0.417000       1.00800           0
     35549 TIP3     6067     TIP3     OH2      OT      -0.834000       15.9994           0
     35550 TIP3     6067     TIP3     H1       HT       0.417000       1.00800           0
     35551 TIP3     6067     TIP3     H2       HT       0.417000       1.00800           0
     35552 TIP3     6068     TIP3     OH2      OT      -0.834000       15.9994           0
     35553 TIP3     6068     TIP3     H1       HT       0.417000       1.00800           0
     35554 TIP3     6068     TIP3     H2       HT       0.417000       1.00800           0
     35555 TIP3     6069     TIP3     OH2      OT      -0.834000       15.9994           0
     35556 TIP3     6069     TIP3     H1       HT       0.417000       1.00800           0
     35557 TIP3     6069     TIP3     H2       HT       0.417000       1.00800           0
     35558 TIP3     6070     TIP3     OH2      OT      -0.834000       15.9994           0
     35559 TIP3     6070     TIP3     H1       HT       0.417000       1.00800           0
     35560 TIP3     6070     TIP3     H2       HT       0.417000       1.00800           0
     35561 TIP3     6071     TIP3     OH2      OT      -0.834000       15.9994           0
     35562 TIP3     6071     TIP3     H1       HT       0.417000       1.00800           0
     35563 TIP3     6071     TIP3     H2       HT       0.417000       1.00800           0
     35564 TIP3     6072     TIP3     OH2      OT      -0.834000       15.9994           0
     35565 TIP3     6072     TIP3     H1       HT       0.417000       1.00800           0
     35566 TIP3     6072     TIP3     H2       HT       0.417000       1.00800           0
     35567 TIP3     6073     TIP3     OH2      OT      -0.834000       15.9994           0
     35568 TIP3     6073     TIP3     H1       HT       0.417000       1.00800           0
     35569 TIP3     6073     TIP3     H2       HT       0.417000       1.00800           0
     35570 TIP3     6074     TIP3     OH2      OT      -0.834000       15.9994           0
     35571 TIP3     6074     TIP3     H1       HT       0.417000       1.00800           0
     35572 TIP3     6074     TIP3     H2       HT       0.417000       1.00800           0
     35573 TIP3     6075     TIP3     OH2      OT      -0.834000       15.9994           0
     35574 TIP3     6075     TIP3     H1       HT       0.417000       1.00800           0
     35575 TIP3     6075     TIP3     H2       HT       0.417000       1.00800           0
     35576 TIP3     6076     TIP3     OH2      OT      -0.834000       15.9994           0
     35577 TIP3     6076     TIP3     H1       HT       0.417000       1.00800           0
     35578 TIP3     6076     TIP3     H2       HT       0.417000       1.00800           0
     35579 TIP3     6077     TIP3     OH2      OT      -0.834000       15.9994           0
     35580 TIP3     6077     TIP3     H1       HT       0.417000       1.00800           0
     35581 TIP3     6077     TIP3     H2       HT       0.417000       1.00800           0
     35582 TIP3     6078     TIP3     OH2      OT      -0.834000       15.9994           0
     35583 TIP3     6078     TIP3     H1       HT       0.417000       1.00800           0
     35584 TIP3     6078     TIP3     H2       HT       0.417000       1.00800           0
     35585 TIP3     6079     TIP3     OH2      OT      -0.834000       15.9994           0
     35586 TIP3     6079     TIP3     H1       HT       0.417000       1.00800           0
     35587 TIP3     6079     TIP3     H2       HT       0.417000       1.00800           0
     35588 TIP3     6080     TIP3     OH2      OT      -0.834000       15.9994           0
     35589 TIP3     6080     TIP3     H1       HT       0.417000       1.00800           0
     35590 TIP3     6080     TIP3     H2       HT       0.417000       1.00800           0
     35591 TIP3     6081     TIP3     OH2      OT      -0.834000       15.9994           0
     35592 TIP3     6081     TIP3     H1       HT       0.417000       1.00800           0
     35593 TIP3     6081     TIP3     H2       HT       0.417000       1.00800           0
     35594 TIP3     6082     TIP3     OH2      OT      -0.834000       15.9994           0
     35595 TIP3     6082     TIP3     H1       HT       0.417000       1.00800           0
     35596 TIP3     6082     TIP3     H2       HT       0.417000       1.00800           0
     35597 TIP3     6083     TIP3     OH2      OT      -0.834000       15.9994           0
     35598 TIP3     6083     TIP3     H1       HT       0.417000       1.00800           0
     35599 TIP3     6083     TIP3     H2       HT       0.417000       1.00800           0
     35600 TIP3     6084     TIP3     OH2      OT      -0.834000       15.9994           0
     35601 TIP3     6084     TIP3     H1       HT       0.417000       1.00800           0
     35602 TIP3     6084     TIP3     H2       HT       0.417000       1.00800           0
     35603 TIP3     6085     TIP3     OH2      OT      -0.834000       15.9994           0
     35604 TIP3     6085     TIP3     H1       HT       0.417000       1.00800           0
     35605 TIP3     6085     TIP3     H2       HT       0.417000       1.00800           0
     35606 TIP3     6086     TIP3     OH2      OT      -0.834000       15.9994           0
     35607 TIP3     6086     TIP3     H1       HT       0.417000       1.00800           0
     35608 TIP3     6086     TIP3     H2       HT       0.417000       1.00800           0
     35609 TIP3     6087     TIP3     OH2      OT      -0.834000       15.9994           0
     35610 TIP3     6087     TIP3     H1       HT       0.417000       1.00800           0
     35611 TIP3     6087     TIP3     H2       HT       0.417000       1.00800           0
     35612 TIP3     6088     TIP3     OH2      OT      -0.834000       15.9994           0
     35613 TIP3     6088     TIP3     H1       HT       0.417000       1.00800           0
     35614 TIP3     6088     TIP3     H2       HT       0.417000       1.00800           0
     35615 TIP3     6089     TIP3     OH2      OT      -0.834000       15.9994           0
     35616 TIP3     6089     TIP3     H1       HT       0.417000       1.00800           0
     35617 TIP3     6089     TIP3     H2       HT       0.417000       1.00800           0
     35618 TIP3     6090     TIP3     OH2      OT      -0.834000       15.9994           0
     35619 TIP3     6090     TIP3     H1       HT       0.417000       1.00800           0
     35620 TIP3     6090     TIP3     H2       HT       0.417000       1.00800           0
     35621 TIP3     6091     TIP3     OH2      OT      -0.834000       15.9994           0
     35622 TIP3     6091     TIP3     H1       HT       0.417000       1.00800           0
     35623 TIP3     6091     TIP3     H2       HT       0.417000       1.00800           0
     35624 TIP3     6092     TIP3     OH2      OT      -0.834000       15.9994           0
     35625 TIP3     6092     TIP3     H1       HT       0.417000       1.00800           0
     35626 TIP3     6092     TIP3     H2       HT       0.417000       1.00800           0
     35627 TIP3     6093     TIP3     OH2      OT      -0.834000       15.9994           0
     35628 TIP3     6093     TIP3     H1       HT       0.417000       1.00800           0
     35629 TIP3     6093     TIP3     H2       HT       0.417000       1.00800           0
     35630 TIP3     6094     TIP3     OH2      OT      -0.834000       15.9994           0
     35631 TIP3     6094     TIP3     H1       HT       0.417000       1.00800           0
     35632 TIP3     6094     TIP3     H2       HT       0.417000       1.00800           0
     35633 TIP3     6095     TIP3     OH2      OT      -0.834000       15.9994           0
     35634 TIP3     6095     TIP3     H1       HT       0.417000       1.00800           0
     35635 TIP3     6095     TIP3     H2       HT       0.417000       1.00800           0
     35636 TIP3     6096     TIP3     OH2      OT      -0.834000       15.9994           0
     35637 TIP3     6096     TIP3     H1       HT       0.417000       1.00800           0
     35638 TIP3     6096     TIP3     H2       HT       0.417000       1.00800           0
     35639 TIP3     6097     TIP3     OH2      OT      -0.834000       15.9994           0
     35640 TIP3     6097     TIP3     H1       HT       0.417000       1.00800           0
     35641 TIP3     6097     TIP3     H2       HT       0.417000       1.00800           0
     35642 TIP3     6098     TIP3     OH2      OT      -0.834000       15.9994           0
     35643 TIP3     6098     TIP3     H1       HT       0.417000       1.00800           0
     35644 TIP3     6098     TIP3     H2       HT       0.417000       1.00800           0
     35645 TIP3     6099     TIP3     OH2      OT      -0.834000       15.9994           0
     35646 TIP3     6099     TIP3     H1       HT       0.417000       1.00800           0
     35647 TIP3     6099     TIP3     H2       HT       0.417000       1.00800           0
     35648 TIP3     6100     TIP3     OH2      OT      -0.834000       15.9994           0
     35649 TIP3     6100     TIP3     H1       HT       0.417000       1.00800           0
     35650 TIP3     6100     TIP3     H2       HT       0.417000       1.00800           0
     35651 TIP3     6101     TIP3     OH2      OT      -0.834000       15.9994           0
     35652 TIP3     6101     TIP3     H1       HT       0.417000       1.00800           0
     35653 TIP3     6101     TIP3     H2       HT       0.417000       1.00800           0
     35654 TIP3     6102     TIP3     OH2      OT      -0.834000       15.9994           0
     35655 TIP3     6102     TIP3     H1       HT       0.417000       1.00800           0
     35656 TIP3     6102     TIP3     H2       HT       0.417000       1.00800           0
     35657 TIP3     6103     TIP3     OH2      OT      -0.834000       15.9994           0
     35658 TIP3     6103     TIP3     H1       HT       0.417000       1.00800           0
     35659 TIP3     6103     TIP3     H2       HT       0.417000       1.00800           0
     35660 TIP3     6104     TIP3     OH2      OT      -0.834000       15.9994           0
     35661 TIP3     6104     TIP3     H1       HT       0.417000       1.00800           0
     35662 TIP3     6104     TIP3     H2       HT       0.417000       1.00800           0
     35663 TIP3     6105     TIP3     OH2      OT      -0.834000       15.9994           0
     35664 TIP3     6105     TIP3     H1       HT       0.417000       1.00800           0
     35665 TIP3     6105     TIP3     H2       HT       0.417000       1.00800           0
     35666 TIP3     6106     TIP3     OH2      OT      -0.834000       15.9994           0
     35667 TIP3     6106     TIP3     H1       HT       0.417000       1.00800           0
     35668 TIP3     6106     TIP3     H2       HT       0.417000       1.00800           0
     35669 TIP3     6107     TIP3     OH2      OT      -0.834000       15.9994           0
     35670 TIP3     6107     TIP3     H1       HT       0.417000       1.00800           0
     35671 TIP3     6107     TIP3     H2       HT       0.417000       1.00800           0
     35672 TIP3     6108     TIP3     OH2      OT      -0.834000       15.9994           0
     35673 TIP3     6108     TIP3     H1       HT       0.417000       1.00800           0
     35674 TIP3     6108     TIP3     H2       HT       0.417000       1.00800           0
     35675 TIP3     6109     TIP3     OH2      OT      -0.834000       15.9994           0
     35676 TIP3     6109     TIP3     H1       HT       0.417000       1.00800           0
     35677 TIP3     6109     TIP3     H2       HT       0.417000       1.00800           0
     35678 TIP3     6110     TIP3     OH2      OT      -0.834000       15.9994           0
     35679 TIP3     6110     TIP3     H1       HT       0.417000       1.00800           0
     35680 TIP3     6110     TIP3     H2       HT       0.417000       1.00800           0
     35681 TIP3     6111     TIP3     OH2      OT      -0.834000       15.9994           0
     35682 TIP3     6111     TIP3     H1       HT       0.417000       1.00800           0
     35683 TIP3     6111     TIP3     H2       HT       0.417000       1.00800           0
     35684 TIP3     6112     TIP3     OH2      OT      -0.834000       15.9994           0
     35685 TIP3     6112     TIP3     H1       HT       0.417000       1.00800           0
     35686 TIP3     6112     TIP3     H2       HT       0.417000       1.00800           0
     35687 TIP3     6113     TIP3     OH2      OT      -0.834000       15.9994           0
     35688 TIP3     6113     TIP3     H1       HT       0.417000       1.00800           0
     35689 TIP3     6113     TIP3     H2       HT       0.417000       1.00800           0
     35690 TIP3     6114     TIP3     OH2      OT      -0.834000       15.9994           0
     35691 TIP3     6114     TIP3     H1       HT       0.417000       1.00800           0
     35692 TIP3     6114     TIP3     H2       HT       0.417000       1.00800           0
     35693 TIP3     6115     TIP3     OH2      OT      -0.834000       15.9994           0
     35694 TIP3     6115     TIP3     H1       HT       0.417000       1.00800           0
     35695 TIP3     6115     TIP3     H2       HT       0.417000       1.00800           0
     35696 TIP3     6116     TIP3     OH2      OT      -0.834000       15.9994           0
     35697 TIP3     6116     TIP3     H1       HT       0.417000       1.00800           0
     35698 TIP3     6116     TIP3     H2       HT       0.417000       1.00800           0
     35699 TIP3     6117     TIP3     OH2      OT      -0.834000       15.9994           0
     35700 TIP3     6117     TIP3     H1       HT       0.417000       1.00800           0
     35701 TIP3     6117     TIP3     H2       HT       0.417000       1.00800           0
     35702 TIP3     6118     TIP3     OH2      OT      -0.834000       15.9994           0
     35703 TIP3     6118     TIP3     H1       HT       0.417000       1.00800           0
     35704 TIP3     6118     TIP3     H2       HT       0.417000       1.00800           0
     35705 TIP3     6119     TIP3     OH2      OT      -0.834000       15.9994           0
     35706 TIP3     6119     TIP3     H1       HT       0.417000       1.00800           0
     35707 TIP3     6119     TIP3     H2       HT       0.417000       1.00800           0
     35708 TIP3     6120     TIP3     OH2      OT      -0.834000       15.9994           0
     35709 TIP3     6120     TIP3     H1       HT       0.417000       1.00800           0
     35710 TIP3     6120     TIP3     H2       HT       0.417000       1.00800           0
     35711 TIP3     6121     TIP3     OH2      OT      -0.834000       15.9994           0
     35712 TIP3     6121     TIP3     H1       HT       0.417000       1.00800           0
     35713 TIP3     6121     TIP3     H2       HT       0.417000       1.00800           0
     35714 TIP3     6122     TIP3     OH2      OT      -0.834000       15.9994           0
     35715 TIP3     6122     TIP3     H1       HT       0.417000       1.00800           0
     35716 TIP3     6122     TIP3     H2       HT       0.417000       1.00800           0
     35717 TIP3     6123     TIP3     OH2      OT      -0.834000       15.9994           0
     35718 TIP3     6123     TIP3     H1       HT       0.417000       1.00800           0
     35719 TIP3     6123     TIP3     H2       HT       0.417000       1.00800           0
     35720 TIP3     6124     TIP3     OH2      OT      -0.834000       15.9994           0
     35721 TIP3     6124     TIP3     H1       HT       0.417000       1.00800           0
     35722 TIP3     6124     TIP3     H2       HT       0.417000       1.00800           0
     35723 TIP3     6125     TIP3     OH2      OT      -0.834000       15.9994           0
     35724 TIP3     6125     TIP3     H1       HT       0.417000       1.00800           0
     35725 TIP3     6125     TIP3     H2       HT       0.417000       1.00800           0
     35726 TIP3     6126     TIP3     OH2      OT      -0.834000       15.9994           0
     35727 TIP3     6126     TIP3     H1       HT       0.417000       1.00800           0
     35728 TIP3     6126     TIP3     H2       HT       0.417000       1.00800           0
     35729 TIP3     6127     TIP3     OH2      OT      -0.834000       15.9994           0
     35730 TIP3     6127     TIP3     H1       HT       0.417000       1.00800           0
     35731 TIP3     6127     TIP3     H2       HT       0.417000       1.00800           0
     35732 TIP3     6128     TIP3     OH2      OT      -0.834000       15.9994           0
     35733 TIP3     6128     TIP3     H1       HT       0.417000       1.00800           0
     35734 TIP3     6128     TIP3     H2       HT       0.417000       1.00800           0
     35735 TIP3     6129     TIP3     OH2      OT      -0.834000       15.9994           0
     35736 TIP3     6129     TIP3     H1       HT       0.417000       1.00800           0
     35737 TIP3     6129     TIP3     H2       HT       0.417000       1.00800           0
     35738 TIP3     6130     TIP3     OH2      OT      -0.834000       15.9994           0
     35739 TIP3     6130     TIP3     H1       HT       0.417000       1.00800           0
     35740 TIP3     6130     TIP3     H2       HT       0.417000       1.00800           0
     35741 TIP3     6131     TIP3     OH2      OT      -0.834000       15.9994           0
     35742 TIP3     6131     TIP3     H1       HT       0.417000       1.00800           0
     35743 TIP3     6131     TIP3     H2       HT       0.417000       1.00800           0
     35744 TIP3     6132     TIP3     OH2      OT      -0.834000       15.9994           0
     35745 TIP3     6132     TIP3     H1       HT       0.417000       1.00800           0
     35746 TIP3     6132     TIP3     H2       HT       0.417000       1.00800           0
     35747 TIP3     6133     TIP3     OH2      OT      -0.834000       15.9994           0
     35748 TIP3     6133     TIP3     H1       HT       0.417000       1.00800           0
     35749 TIP3     6133     TIP3     H2       HT       0.417000       1.00800           0
     35750 TIP3     6134     TIP3     OH2      OT      -0.834000       15.9994           0
     35751 TIP3     6134     TIP3     H1       HT       0.417000       1.00800           0
     35752 TIP3     6134     TIP3     H2       HT       0.417000       1.00800           0
     35753 TIP3     6135     TIP3     OH2      OT      -0.834000       15.9994           0
     35754 TIP3     6135     TIP3     H1       HT       0.417000       1.00800           0
     35755 TIP3     6135     TIP3     H2       HT       0.417000       1.00800           0
     35756 TIP3     6136     TIP3     OH2      OT      -0.834000       15.9994           0
     35757 TIP3     6136     TIP3     H1       HT       0.417000       1.00800           0
     35758 TIP3     6136     TIP3     H2       HT       0.417000       1.00800           0
     35759 TIP3     6137     TIP3     OH2      OT      -0.834000       15.9994           0
     35760 TIP3     6137     TIP3     H1       HT       0.417000       1.00800           0
     35761 TIP3     6137     TIP3     H2       HT       0.417000       1.00800           0
     35762 TIP3     6138     TIP3     OH2      OT      -0.834000       15.9994           0
     35763 TIP3     6138     TIP3     H1       HT       0.417000       1.00800           0
     35764 TIP3     6138     TIP3     H2       HT       0.417000       1.00800           0
     35765 TIP3     6139     TIP3     OH2      OT      -0.834000       15.9994           0
     35766 TIP3     6139     TIP3     H1       HT       0.417000       1.00800           0
     35767 TIP3     6139     TIP3     H2       HT       0.417000       1.00800           0
     35768 TIP3     6140     TIP3     OH2      OT      -0.834000       15.9994           0
     35769 TIP3     6140     TIP3     H1       HT       0.417000       1.00800           0
     35770 TIP3     6140     TIP3     H2       HT       0.417000       1.00800           0
     35771 TIP3     6141     TIP3     OH2      OT      -0.834000       15.9994           0
     35772 TIP3     6141     TIP3     H1       HT       0.417000       1.00800           0
     35773 TIP3     6141     TIP3     H2       HT       0.417000       1.00800           0
     35774 TIP3     6142     TIP3     OH2      OT      -0.834000       15.9994           0
     35775 TIP3     6142     TIP3     H1       HT       0.417000       1.00800           0
     35776 TIP3     6142     TIP3     H2       HT       0.417000       1.00800           0
     35777 TIP3     6143     TIP3     OH2      OT      -0.834000       15.9994           0
     35778 TIP3     6143     TIP3     H1       HT       0.417000       1.00800           0
     35779 TIP3     6143     TIP3     H2       HT       0.417000       1.00800           0
     35780 TIP3     6144     TIP3     OH2      OT      -0.834000       15.9994           0
     35781 TIP3     6144     TIP3     H1       HT       0.417000       1.00800           0
     35782 TIP3     6144     TIP3     H2       HT       0.417000       1.00800           0
     35783 TIP3     6145     TIP3     OH2      OT      -0.834000       15.9994           0
     35784 TIP3     6145     TIP3     H1       HT       0.417000       1.00800           0
     35785 TIP3     6145     TIP3     H2       HT       0.417000       1.00800           0
     35786 TIP3     6146     TIP3     OH2      OT      -0.834000       15.9994           0
     35787 TIP3     6146     TIP3     H1       HT       0.417000       1.00800           0
     35788 TIP3     6146     TIP3     H2       HT       0.417000       1.00800           0
     35789 TIP3     6147     TIP3     OH2      OT      -0.834000       15.9994           0
     35790 TIP3     6147     TIP3     H1       HT       0.417000       1.00800           0
     35791 TIP3     6147     TIP3     H2       HT       0.417000       1.00800           0
     35792 TIP3     6148     TIP3     OH2      OT      -0.834000       15.9994           0
     35793 TIP3     6148     TIP3     H1       HT       0.417000       1.00800           0
     35794 TIP3     6148     TIP3     H2       HT       0.417000       1.00800           0
     35795 TIP3     6149     TIP3     OH2      OT      -0.834000       15.9994           0
     35796 TIP3     6149     TIP3     H1       HT       0.417000       1.00800           0
     35797 TIP3     6149     TIP3     H2       HT       0.417000       1.00800           0
     35798 TIP3     6150     TIP3     OH2      OT      -0.834000       15.9994           0
     35799 TIP3     6150     TIP3     H1       HT       0.417000       1.00800           0
     35800 TIP3     6150     TIP3     H2       HT       0.417000       1.00800           0
     35801 TIP3     6151     TIP3     OH2      OT      -0.834000       15.9994           0
     35802 TIP3     6151     TIP3     H1       HT       0.417000       1.00800           0
     35803 TIP3     6151     TIP3     H2       HT       0.417000       1.00800           0
     35804 TIP3     6152     TIP3     OH2      OT      -0.834000       15.9994           0
     35805 TIP3     6152     TIP3     H1       HT       0.417000       1.00800           0
     35806 TIP3     6152     TIP3     H2       HT       0.417000       1.00800           0
     35807 TIP3     6153     TIP3     OH2      OT      -0.834000       15.9994           0
     35808 TIP3     6153     TIP3     H1       HT       0.417000       1.00800           0
     35809 TIP3     6153     TIP3     H2       HT       0.417000       1.00800           0
     35810 TIP3     6154     TIP3     OH2      OT      -0.834000       15.9994           0
     35811 TIP3     6154     TIP3     H1       HT       0.417000       1.00800           0
     35812 TIP3     6154     TIP3     H2       HT       0.417000       1.00800           0
     35813 TIP3     6155     TIP3     OH2      OT      -0.834000       15.9994           0
     35814 TIP3     6155     TIP3     H1       HT       0.417000       1.00800           0
     35815 TIP3     6155     TIP3     H2       HT       0.417000       1.00800           0
     35816 TIP3     6156     TIP3     OH2      OT      -0.834000       15.9994           0
     35817 TIP3     6156     TIP3     H1       HT       0.417000       1.00800           0
     35818 TIP3     6156     TIP3     H2       HT       0.417000       1.00800           0
     35819 TIP3     6157     TIP3     OH2      OT      -0.834000       15.9994           0
     35820 TIP3     6157     TIP3     H1       HT       0.417000       1.00800           0
     35821 TIP3     6157     TIP3     H2       HT       0.417000       1.00800           0
     35822 TIP3     6158     TIP3     OH2      OT      -0.834000       15.9994           0
     35823 TIP3     6158     TIP3     H1       HT       0.417000       1.00800           0
     35824 TIP3     6158     TIP3     H2       HT       0.417000       1.00800           0
     35825 TIP3     6159     TIP3     OH2      OT      -0.834000       15.9994           0
     35826 TIP3     6159     TIP3     H1       HT       0.417000       1.00800           0
     35827 TIP3     6159     TIP3     H2       HT       0.417000       1.00800           0
     35828 TIP3     6160     TIP3     OH2      OT      -0.834000       15.9994           0
     35829 TIP3     6160     TIP3     H1       HT       0.417000       1.00800           0
     35830 TIP3     6160     TIP3     H2       HT       0.417000       1.00800           0
     35831 TIP3     6161     TIP3     OH2      OT      -0.834000       15.9994           0
     35832 TIP3     6161     TIP3     H1       HT       0.417000       1.00800           0
     35833 TIP3     6161     TIP3     H2       HT       0.417000       1.00800           0
     35834 TIP3     6162     TIP3     OH2      OT      -0.834000       15.9994           0
     35835 TIP3     6162     TIP3     H1       HT       0.417000       1.00800           0
     35836 TIP3     6162     TIP3     H2       HT       0.417000       1.00800           0
     35837 TIP3     6163     TIP3     OH2      OT      -0.834000       15.9994           0
     35838 TIP3     6163     TIP3     H1       HT       0.417000       1.00800           0
     35839 TIP3     6163     TIP3     H2       HT       0.417000       1.00800           0
     35840 TIP3     6164     TIP3     OH2      OT      -0.834000       15.9994           0
     35841 TIP3     6164     TIP3     H1       HT       0.417000       1.00800           0
     35842 TIP3     6164     TIP3     H2       HT       0.417000       1.00800           0
     35843 TIP3     6165     TIP3     OH2      OT      -0.834000       15.9994           0
     35844 TIP3     6165     TIP3     H1       HT       0.417000       1.00800           0
     35845 TIP3     6165     TIP3     H2       HT       0.417000       1.00800           0
     35846 TIP3     6166     TIP3     OH2      OT      -0.834000       15.9994           0
     35847 TIP3     6166     TIP3     H1       HT       0.417000       1.00800           0
     35848 TIP3     6166     TIP3     H2       HT       0.417000       1.00800           0
     35849 TIP3     6167     TIP3     OH2      OT      -0.834000       15.9994           0
     35850 TIP3     6167     TIP3     H1       HT       0.417000       1.00800           0
     35851 TIP3     6167     TIP3     H2       HT       0.417000       1.00800           0
     35852 TIP3     6168     TIP3     OH2      OT      -0.834000       15.9994           0
     35853 TIP3     6168     TIP3     H1       HT       0.417000       1.00800           0
     35854 TIP3     6168     TIP3     H2       HT       0.417000       1.00800           0
     35855 TIP3     6169     TIP3     OH2      OT      -0.834000       15.9994           0
     35856 TIP3     6169     TIP3     H1       HT       0.417000       1.00800           0
     35857 TIP3     6169     TIP3     H2       HT       0.417000       1.00800           0
     35858 TIP3     6170     TIP3     OH2      OT      -0.834000       15.9994           0
     35859 TIP3     6170     TIP3     H1       HT       0.417000       1.00800           0
     35860 TIP3     6170     TIP3     H2       HT       0.417000       1.00800           0
     35861 TIP3     6171     TIP3     OH2      OT      -0.834000       15.9994           0
     35862 TIP3     6171     TIP3     H1       HT       0.417000       1.00800           0
     35863 TIP3     6171     TIP3     H2       HT       0.417000       1.00800           0
     35864 TIP3     6172     TIP3     OH2      OT      -0.834000       15.9994           0
     35865 TIP3     6172     TIP3     H1       HT       0.417000       1.00800           0
     35866 TIP3     6172     TIP3     H2       HT       0.417000       1.00800           0
     35867 TIP3     6173     TIP3     OH2      OT      -0.834000       15.9994           0
     35868 TIP3     6173     TIP3     H1       HT       0.417000       1.00800           0
     35869 TIP3     6173     TIP3     H2       HT       0.417000       1.00800           0
     35870 TIP3     6174     TIP3     OH2      OT      -0.834000       15.9994           0
     35871 TIP3     6174     TIP3     H1       HT       0.417000       1.00800           0
     35872 TIP3     6174     TIP3     H2       HT       0.417000       1.00800           0
     35873 TIP3     6175     TIP3     OH2      OT      -0.834000       15.9994           0
     35874 TIP3     6175     TIP3     H1       HT       0.417000       1.00800           0
     35875 TIP3     6175     TIP3     H2       HT       0.417000       1.00800           0
     35876 TIP3     6176     TIP3     OH2      OT      -0.834000       15.9994           0
     35877 TIP3     6176     TIP3     H1       HT       0.417000       1.00800           0
     35878 TIP3     6176     TIP3     H2       HT       0.417000       1.00800           0
     35879 TIP3     6177     TIP3     OH2      OT      -0.834000       15.9994           0
     35880 TIP3     6177     TIP3     H1       HT       0.417000       1.00800           0
     35881 TIP3     6177     TIP3     H2       HT       0.417000       1.00800           0
     35882 TIP3     6178     TIP3     OH2      OT      -0.834000       15.9994           0
     35883 TIP3     6178     TIP3     H1       HT       0.417000       1.00800           0
     35884 TIP3     6178     TIP3     H2       HT       0.417000       1.00800           0
     35885 TIP3     6179     TIP3     OH2      OT      -0.834000       15.9994           0
     35886 TIP3     6179     TIP3     H1       HT       0.417000       1.00800           0
     35887 TIP3     6179     TIP3     H2       HT       0.417000       1.00800           0
     35888 TIP3     6180     TIP3     OH2      OT      -0.834000       15.9994           0
     35889 TIP3     6180     TIP3     H1       HT       0.417000       1.00800           0
     35890 TIP3     6180     TIP3     H2       HT       0.417000       1.00800           0
     35891 TIP3     6181     TIP3     OH2      OT      -0.834000       15.9994           0
     35892 TIP3     6181     TIP3     H1       HT       0.417000       1.00800           0
     35893 TIP3     6181     TIP3     H2       HT       0.417000       1.00800           0
     35894 TIP3     6182     TIP3     OH2      OT      -0.834000       15.9994           0
     35895 TIP3     6182     TIP3     H1       HT       0.417000       1.00800           0
     35896 TIP3     6182     TIP3     H2       HT       0.417000       1.00800           0
     35897 TIP3     6183     TIP3     OH2      OT      -0.834000       15.9994           0
     35898 TIP3     6183     TIP3     H1       HT       0.417000       1.00800           0
     35899 TIP3     6183     TIP3     H2       HT       0.417000       1.00800           0
     35900 TIP3     6184     TIP3     OH2      OT      -0.834000       15.9994           0
     35901 TIP3     6184     TIP3     H1       HT       0.417000       1.00800           0
     35902 TIP3     6184     TIP3     H2       HT       0.417000       1.00800           0
     35903 TIP3     6185     TIP3     OH2      OT      -0.834000       15.9994           0
     35904 TIP3     6185     TIP3     H1       HT       0.417000       1.00800           0
     35905 TIP3     6185     TIP3     H2       HT       0.417000       1.00800           0
     35906 TIP3     6186     TIP3     OH2      OT      -0.834000       15.9994           0
     35907 TIP3     6186     TIP3     H1       HT       0.417000       1.00800           0
     35908 TIP3     6186     TIP3     H2       HT       0.417000       1.00800           0
     35909 TIP3     6187     TIP3     OH2      OT      -0.834000       15.9994           0
     35910 TIP3     6187     TIP3     H1       HT       0.417000       1.00800           0
     35911 TIP3     6187     TIP3     H2       HT       0.417000       1.00800           0
     35912 TIP3     6188     TIP3     OH2      OT      -0.834000       15.9994           0
     35913 TIP3     6188     TIP3     H1       HT       0.417000       1.00800           0
     35914 TIP3     6188     TIP3     H2       HT       0.417000       1.00800           0
     35915 TIP3     6189     TIP3     OH2      OT      -0.834000       15.9994           0
     35916 TIP3     6189     TIP3     H1       HT       0.417000       1.00800           0
     35917 TIP3     6189     TIP3     H2       HT       0.417000       1.00800           0
     35918 TIP3     6190     TIP3     OH2      OT      -0.834000       15.9994           0
     35919 TIP3     6190     TIP3     H1       HT       0.417000       1.00800           0
     35920 TIP3     6190     TIP3     H2       HT       0.417000       1.00800           0
     35921 TIP3     6191     TIP3     OH2      OT      -0.834000       15.9994           0
     35922 TIP3     6191     TIP3     H1       HT       0.417000       1.00800           0
     35923 TIP3     6191     TIP3     H2       HT       0.417000       1.00800           0
     35924 TIP3     6192     TIP3     OH2      OT      -0.834000       15.9994           0
     35925 TIP3     6192     TIP3     H1       HT       0.417000       1.00800           0
     35926 TIP3     6192     TIP3     H2       HT       0.417000       1.00800           0
     35927 TIP3     6193     TIP3     OH2      OT      -0.834000       15.9994           0
     35928 TIP3     6193     TIP3     H1       HT       0.417000       1.00800           0
     35929 TIP3     6193     TIP3     H2       HT       0.417000       1.00800           0
     35930 TIP3     6194     TIP3     OH2      OT      -0.834000       15.9994           0
     35931 TIP3     6194     TIP3     H1       HT       0.417000       1.00800           0
     35932 TIP3     6194     TIP3     H2       HT       0.417000       1.00800           0
     35933 TIP3     6195     TIP3     OH2      OT      -0.834000       15.9994           0
     35934 TIP3     6195     TIP3     H1       HT       0.417000       1.00800           0
     35935 TIP3     6195     TIP3     H2       HT       0.417000       1.00800           0
     35936 TIP3     6196     TIP3     OH2      OT      -0.834000       15.9994           0
     35937 TIP3     6196     TIP3     H1       HT       0.417000       1.00800           0
     35938 TIP3     6196     TIP3     H2       HT       0.417000       1.00800           0
     35939 TIP3     6197     TIP3     OH2      OT      -0.834000       15.9994           0
     35940 TIP3     6197     TIP3     H1       HT       0.417000       1.00800           0
     35941 TIP3     6197     TIP3     H2       HT       0.417000       1.00800           0
     35942 TIP3     6198     TIP3     OH2      OT      -0.834000       15.9994           0
     35943 TIP3     6198     TIP3     H1       HT       0.417000       1.00800           0
     35944 TIP3     6198     TIP3     H2       HT       0.417000       1.00800           0
     35945 TIP3     6199     TIP3     OH2      OT      -0.834000       15.9994           0
     35946 TIP3     6199     TIP3     H1       HT       0.417000       1.00800           0
     35947 TIP3     6199     TIP3     H2       HT       0.417000       1.00800           0
     35948 TIP3     6200     TIP3     OH2      OT      -0.834000       15.9994           0
     35949 TIP3     6200     TIP3     H1       HT       0.417000       1.00800           0
     35950 TIP3     6200     TIP3     H2       HT       0.417000       1.00800           0
     35951 TIP3     6201     TIP3     OH2      OT      -0.834000       15.9994           0
     35952 TIP3     6201     TIP3     H1       HT       0.417000       1.00800           0
     35953 TIP3     6201     TIP3     H2       HT       0.417000       1.00800           0
     35954 TIP3     6202     TIP3     OH2      OT      -0.834000       15.9994           0
     35955 TIP3     6202     TIP3     H1       HT       0.417000       1.00800           0
     35956 TIP3     6202     TIP3     H2       HT       0.417000       1.00800           0
     35957 TIP3     6203     TIP3     OH2      OT      -0.834000       15.9994           0
     35958 TIP3     6203     TIP3     H1       HT       0.417000       1.00800           0
     35959 TIP3     6203     TIP3     H2       HT       0.417000       1.00800           0
     35960 TIP3     6204     TIP3     OH2      OT      -0.834000       15.9994           0
     35961 TIP3     6204     TIP3     H1       HT       0.417000       1.00800           0
     35962 TIP3     6204     TIP3     H2       HT       0.417000       1.00800           0
     35963 TIP3     6205     TIP3     OH2      OT      -0.834000       15.9994           0
     35964 TIP3     6205     TIP3     H1       HT       0.417000       1.00800           0
     35965 TIP3     6205     TIP3     H2       HT       0.417000       1.00800           0
     35966 TIP3     6206     TIP3     OH2      OT      -0.834000       15.9994           0
     35967 TIP3     6206     TIP3     H1       HT       0.417000       1.00800           0
     35968 TIP3     6206     TIP3     H2       HT       0.417000       1.00800           0
     35969 TIP3     6207     TIP3     OH2      OT      -0.834000       15.9994           0
     35970 TIP3     6207     TIP3     H1       HT       0.417000       1.00800           0
     35971 TIP3     6207     TIP3     H2       HT       0.417000       1.00800           0
     35972 TIP3     6208     TIP3     OH2      OT      -0.834000       15.9994           0
     35973 TIP3     6208     TIP3     H1       HT       0.417000       1.00800           0
     35974 TIP3     6208     TIP3     H2       HT       0.417000       1.00800           0
     35975 TIP3     6209     TIP3     OH2      OT      -0.834000       15.9994           0
     35976 TIP3     6209     TIP3     H1       HT       0.417000       1.00800           0
     35977 TIP3     6209     TIP3     H2       HT       0.417000       1.00800           0
     35978 TIP3     6210     TIP3     OH2      OT      -0.834000       15.9994           0
     35979 TIP3     6210     TIP3     H1       HT       0.417000       1.00800           0
     35980 TIP3     6210     TIP3     H2       HT       0.417000       1.00800           0
     35981 TIP3     6211     TIP3     OH2      OT      -0.834000       15.9994           0
     35982 TIP3     6211     TIP3     H1       HT       0.417000       1.00800           0
     35983 TIP3     6211     TIP3     H2       HT       0.417000       1.00800           0
     35984 TIP3     6212     TIP3     OH2      OT      -0.834000       15.9994           0
     35985 TIP3     6212     TIP3     H1       HT       0.417000       1.00800           0
     35986 TIP3     6212     TIP3     H2       HT       0.417000       1.00800           0
     35987 TIP3     6213     TIP3     OH2      OT      -0.834000       15.9994           0
     35988 TIP3     6213     TIP3     H1       HT       0.417000       1.00800           0
     35989 TIP3     6213     TIP3     H2       HT       0.417000       1.00800           0
     35990 TIP3     6214     TIP3     OH2      OT      -0.834000       15.9994           0
     35991 TIP3     6214     TIP3     H1       HT       0.417000       1.00800           0
     35992 TIP3     6214     TIP3     H2       HT       0.417000       1.00800           0
     35993 TIP3     6215     TIP3     OH2      OT      -0.834000       15.9994           0
     35994 TIP3     6215     TIP3     H1       HT       0.417000       1.00800           0
     35995 TIP3     6215     TIP3     H2       HT       0.417000       1.00800           0
     35996 TIP3     6216     TIP3     OH2      OT      -0.834000       15.9994           0
     35997 TIP3     6216     TIP3     H1       HT       0.417000       1.00800           0
     35998 TIP3     6216     TIP3     H2       HT       0.417000       1.00800           0
     35999 TIP3     6217     TIP3     OH2      OT      -0.834000       15.9994           0
     36000 TIP3     6217     TIP3     H1       HT       0.417000       1.00800           0
     36001 TIP3     6217     TIP3     H2       HT       0.417000       1.00800           0
     36002 TIP3     6218     TIP3     OH2      OT      -0.834000       15.9994           0
     36003 TIP3     6218     TIP3     H1       HT       0.417000       1.00800           0
     36004 TIP3     6218     TIP3     H2       HT       0.417000       1.00800           0
     36005 TIP3     6219     TIP3     OH2      OT      -0.834000       15.9994           0
     36006 TIP3     6219     TIP3     H1       HT       0.417000       1.00800           0
     36007 TIP3     6219     TIP3     H2       HT       0.417000       1.00800           0
     36008 TIP3     6220     TIP3     OH2      OT      -0.834000       15.9994           0
     36009 TIP3     6220     TIP3     H1       HT       0.417000       1.00800           0
     36010 TIP3     6220     TIP3     H2       HT       0.417000       1.00800           0
     36011 TIP3     6221     TIP3     OH2      OT      -0.834000       15.9994           0
     36012 TIP3     6221     TIP3     H1       HT       0.417000       1.00800           0
     36013 TIP3     6221     TIP3     H2       HT       0.417000       1.00800           0
     36014 TIP3     6222     TIP3     OH2      OT      -0.834000       15.9994           0
     36015 TIP3     6222     TIP3     H1       HT       0.417000       1.00800           0
     36016 TIP3     6222     TIP3     H2       HT       0.417000       1.00800           0
     36017 TIP3     6223     TIP3     OH2      OT      -0.834000       15.9994           0
     36018 TIP3     6223     TIP3     H1       HT       0.417000       1.00800           0
     36019 TIP3     6223     TIP3     H2       HT       0.417000       1.00800           0
     36020 TIP3     6224     TIP3     OH2      OT      -0.834000       15.9994           0
     36021 TIP3     6224     TIP3     H1       HT       0.417000       1.00800           0
     36022 TIP3     6224     TIP3     H2       HT       0.417000       1.00800           0
     36023 TIP3     6225     TIP3     OH2      OT      -0.834000       15.9994           0
     36024 TIP3     6225     TIP3     H1       HT       0.417000       1.00800           0
     36025 TIP3     6225     TIP3     H2       HT       0.417000       1.00800           0
     36026 TIP3     6226     TIP3     OH2      OT      -0.834000       15.9994           0
     36027 TIP3     6226     TIP3     H1       HT       0.417000       1.00800           0
     36028 TIP3     6226     TIP3     H2       HT       0.417000       1.00800           0
     36029 TIP3     6227     TIP3     OH2      OT      -0.834000       15.9994           0
     36030 TIP3     6227     TIP3     H1       HT       0.417000       1.00800           0
     36031 TIP3     6227     TIP3     H2       HT       0.417000       1.00800           0
     36032 TIP3     6228     TIP3     OH2      OT      -0.834000       15.9994           0
     36033 TIP3     6228     TIP3     H1       HT       0.417000       1.00800           0
     36034 TIP3     6228     TIP3     H2       HT       0.417000       1.00800           0
     36035 TIP3     6229     TIP3     OH2      OT      -0.834000       15.9994           0
     36036 TIP3     6229     TIP3     H1       HT       0.417000       1.00800           0
     36037 TIP3     6229     TIP3     H2       HT       0.417000       1.00800           0
     36038 TIP3     6230     TIP3     OH2      OT      -0.834000       15.9994           0
     36039 TIP3     6230     TIP3     H1       HT       0.417000       1.00800           0
     36040 TIP3     6230     TIP3     H2       HT       0.417000       1.00800           0
     36041 TIP3     6231     TIP3     OH2      OT      -0.834000       15.9994           0
     36042 TIP3     6231     TIP3     H1       HT       0.417000       1.00800           0
     36043 TIP3     6231     TIP3     H2       HT       0.417000       1.00800           0
     36044 TIP3     6232     TIP3     OH2      OT      -0.834000       15.9994           0
     36045 TIP3     6232     TIP3     H1       HT       0.417000       1.00800           0
     36046 TIP3     6232     TIP3     H2       HT       0.417000       1.00800           0
     36047 TIP3     6233     TIP3     OH2      OT      -0.834000       15.9994           0
     36048 TIP3     6233     TIP3     H1       HT       0.417000       1.00800           0
     36049 TIP3     6233     TIP3     H2       HT       0.417000       1.00800           0
     36050 TIP3     6234     TIP3     OH2      OT      -0.834000       15.9994           0
     36051 TIP3     6234     TIP3     H1       HT       0.417000       1.00800           0
     36052 TIP3     6234     TIP3     H2       HT       0.417000       1.00800           0
     36053 TIP3     6235     TIP3     OH2      OT      -0.834000       15.9994           0
     36054 TIP3     6235     TIP3     H1       HT       0.417000       1.00800           0
     36055 TIP3     6235     TIP3     H2       HT       0.417000       1.00800           0
     36056 TIP3     6236     TIP3     OH2      OT      -0.834000       15.9994           0
     36057 TIP3     6236     TIP3     H1       HT       0.417000       1.00800           0
     36058 TIP3     6236     TIP3     H2       HT       0.417000       1.00800           0
     36059 TIP3     6237     TIP3     OH2      OT      -0.834000       15.9994           0
     36060 TIP3     6237     TIP3     H1       HT       0.417000       1.00800           0
     36061 TIP3     6237     TIP3     H2       HT       0.417000       1.00800           0
     36062 TIP3     6238     TIP3     OH2      OT      -0.834000       15.9994           0
     36063 TIP3     6238     TIP3     H1       HT       0.417000       1.00800           0
     36064 TIP3     6238     TIP3     H2       HT       0.417000       1.00800           0
     36065 TIP3     6239     TIP3     OH2      OT      -0.834000       15.9994           0
     36066 TIP3     6239     TIP3     H1       HT       0.417000       1.00800           0
     36067 TIP3     6239     TIP3     H2       HT       0.417000       1.00800           0
     36068 TIP3     6240     TIP3     OH2      OT      -0.834000       15.9994           0
     36069 TIP3     6240     TIP3     H1       HT       0.417000       1.00800           0
     36070 TIP3     6240     TIP3     H2       HT       0.417000       1.00800           0
     36071 TIP3     6241     TIP3     OH2      OT      -0.834000       15.9994           0
     36072 TIP3     6241     TIP3     H1       HT       0.417000       1.00800           0
     36073 TIP3     6241     TIP3     H2       HT       0.417000       1.00800           0
     36074 TIP3     6242     TIP3     OH2      OT      -0.834000       15.9994           0
     36075 TIP3     6242     TIP3     H1       HT       0.417000       1.00800           0
     36076 TIP3     6242     TIP3     H2       HT       0.417000       1.00800           0
     36077 TIP3     6243     TIP3     OH2      OT      -0.834000       15.9994           0
     36078 TIP3     6243     TIP3     H1       HT       0.417000       1.00800           0
     36079 TIP3     6243     TIP3     H2       HT       0.417000       1.00800           0
     36080 TIP3     6244     TIP3     OH2      OT      -0.834000       15.9994           0
     36081 TIP3     6244     TIP3     H1       HT       0.417000       1.00800           0
     36082 TIP3     6244     TIP3     H2       HT       0.417000       1.00800           0
     36083 TIP3     6245     TIP3     OH2      OT      -0.834000       15.9994           0
     36084 TIP3     6245     TIP3     H1       HT       0.417000       1.00800           0
     36085 TIP3     6245     TIP3     H2       HT       0.417000       1.00800           0
     36086 TIP3     6246     TIP3     OH2      OT      -0.834000       15.9994           0
     36087 TIP3     6246     TIP3     H1       HT       0.417000       1.00800           0
     36088 TIP3     6246     TIP3     H2       HT       0.417000       1.00800           0
     36089 TIP3     6247     TIP3     OH2      OT      -0.834000       15.9994           0
     36090 TIP3     6247     TIP3     H1       HT       0.417000       1.00800           0
     36091 TIP3     6247     TIP3     H2       HT       0.417000       1.00800           0
     36092 TIP3     6248     TIP3     OH2      OT      -0.834000       15.9994           0
     36093 TIP3     6248     TIP3     H1       HT       0.417000       1.00800           0
     36094 TIP3     6248     TIP3     H2       HT       0.417000       1.00800           0
     36095 TIP3     6249     TIP3     OH2      OT      -0.834000       15.9994           0
     36096 TIP3     6249     TIP3     H1       HT       0.417000       1.00800           0
     36097 TIP3     6249     TIP3     H2       HT       0.417000       1.00800           0
     36098 TIP3     6250     TIP3     OH2      OT      -0.834000       15.9994           0
     36099 TIP3     6250     TIP3     H1       HT       0.417000       1.00800           0
     36100 TIP3     6250     TIP3     H2       HT       0.417000       1.00800           0
     36101 TIP3     6251     TIP3     OH2      OT      -0.834000       15.9994           0
     36102 TIP3     6251     TIP3     H1       HT       0.417000       1.00800           0
     36103 TIP3     6251     TIP3     H2       HT       0.417000       1.00800           0
     36104 TIP3     6252     TIP3     OH2      OT      -0.834000       15.9994           0
     36105 TIP3     6252     TIP3     H1       HT       0.417000       1.00800           0
     36106 TIP3     6252     TIP3     H2       HT       0.417000       1.00800           0
     36107 TIP3     6253     TIP3     OH2      OT      -0.834000       15.9994           0
     36108 TIP3     6253     TIP3     H1       HT       0.417000       1.00800           0
     36109 TIP3     6253     TIP3     H2       HT       0.417000       1.00800           0
     36110 TIP3     6254     TIP3     OH2      OT      -0.834000       15.9994           0
     36111 TIP3     6254     TIP3     H1       HT       0.417000       1.00800           0
     36112 TIP3     6254     TIP3     H2       HT       0.417000       1.00800           0
     36113 TIP3     6255     TIP3     OH2      OT      -0.834000       15.9994           0
     36114 TIP3     6255     TIP3     H1       HT       0.417000       1.00800           0
     36115 TIP3     6255     TIP3     H2       HT       0.417000       1.00800           0
     36116 TIP3     6256     TIP3     OH2      OT      -0.834000       15.9994           0
     36117 TIP3     6256     TIP3     H1       HT       0.417000       1.00800           0
     36118 TIP3     6256     TIP3     H2       HT       0.417000       1.00800           0
     36119 TIP3     6257     TIP3     OH2      OT      -0.834000       15.9994           0
     36120 TIP3     6257     TIP3     H1       HT       0.417000       1.00800           0
     36121 TIP3     6257     TIP3     H2       HT       0.417000       1.00800           0
     36122 TIP3     6258     TIP3     OH2      OT      -0.834000       15.9994           0
     36123 TIP3     6258     TIP3     H1       HT       0.417000       1.00800           0
     36124 TIP3     6258     TIP3     H2       HT       0.417000       1.00800           0
     36125 TIP3     6259     TIP3     OH2      OT      -0.834000       15.9994           0
     36126 TIP3     6259     TIP3     H1       HT       0.417000       1.00800           0
     36127 TIP3     6259     TIP3     H2       HT       0.417000       1.00800           0
     36128 TIP3     6260     TIP3     OH2      OT      -0.834000       15.9994           0
     36129 TIP3     6260     TIP3     H1       HT       0.417000       1.00800           0
     36130 TIP3     6260     TIP3     H2       HT       0.417000       1.00800           0
     36131 TIP3     6261     TIP3     OH2      OT      -0.834000       15.9994           0
     36132 TIP3     6261     TIP3     H1       HT       0.417000       1.00800           0
     36133 TIP3     6261     TIP3     H2       HT       0.417000       1.00800           0
     36134 TIP3     6262     TIP3     OH2      OT      -0.834000       15.9994           0
     36135 TIP3     6262     TIP3     H1       HT       0.417000       1.00800           0
     36136 TIP3     6262     TIP3     H2       HT       0.417000       1.00800           0
     36137 TIP3     6263     TIP3     OH2      OT      -0.834000       15.9994           0
     36138 TIP3     6263     TIP3     H1       HT       0.417000       1.00800           0
     36139 TIP3     6263     TIP3     H2       HT       0.417000       1.00800           0
     36140 TIP3     6264     TIP3     OH2      OT      -0.834000       15.9994           0
     36141 TIP3     6264     TIP3     H1       HT       0.417000       1.00800           0
     36142 TIP3     6264     TIP3     H2       HT       0.417000       1.00800           0
     36143 TIP3     6265     TIP3     OH2      OT      -0.834000       15.9994           0
     36144 TIP3     6265     TIP3     H1       HT       0.417000       1.00800           0
     36145 TIP3     6265     TIP3     H2       HT       0.417000       1.00800           0
     36146 TIP3     6266     TIP3     OH2      OT      -0.834000       15.9994           0
     36147 TIP3     6266     TIP3     H1       HT       0.417000       1.00800           0
     36148 TIP3     6266     TIP3     H2       HT       0.417000       1.00800           0
     36149 TIP3     6267     TIP3     OH2      OT      -0.834000       15.9994           0
     36150 TIP3     6267     TIP3     H1       HT       0.417000       1.00800           0
     36151 TIP3     6267     TIP3     H2       HT       0.417000       1.00800           0
     36152 TIP3     6268     TIP3     OH2      OT      -0.834000       15.9994           0
     36153 TIP3     6268     TIP3     H1       HT       0.417000       1.00800           0
     36154 TIP3     6268     TIP3     H2       HT       0.417000       1.00800           0
     36155 TIP3     6269     TIP3     OH2      OT      -0.834000       15.9994           0
     36156 TIP3     6269     TIP3     H1       HT       0.417000       1.00800           0
     36157 TIP3     6269     TIP3     H2       HT       0.417000       1.00800           0
     36158 TIP3     6270     TIP3     OH2      OT      -0.834000       15.9994           0
     36159 TIP3     6270     TIP3     H1       HT       0.417000       1.00800           0
     36160 TIP3     6270     TIP3     H2       HT       0.417000       1.00800           0
     36161 TIP3     6271     TIP3     OH2      OT      -0.834000       15.9994           0
     36162 TIP3     6271     TIP3     H1       HT       0.417000       1.00800           0
     36163 TIP3     6271     TIP3     H2       HT       0.417000       1.00800           0
     36164 TIP3     6272     TIP3     OH2      OT      -0.834000       15.9994           0
     36165 TIP3     6272     TIP3     H1       HT       0.417000       1.00800           0
     36166 TIP3     6272     TIP3     H2       HT       0.417000       1.00800           0
     36167 TIP3     6273     TIP3     OH2      OT      -0.834000       15.9994           0
     36168 TIP3     6273     TIP3     H1       HT       0.417000       1.00800           0
     36169 TIP3     6273     TIP3     H2       HT       0.417000       1.00800           0
     36170 TIP3     6274     TIP3     OH2      OT      -0.834000       15.9994           0
     36171 TIP3     6274     TIP3     H1       HT       0.417000       1.00800           0
     36172 TIP3     6274     TIP3     H2       HT       0.417000       1.00800           0
     36173 TIP3     6275     TIP3     OH2      OT      -0.834000       15.9994           0
     36174 TIP3     6275     TIP3     H1       HT       0.417000       1.00800           0
     36175 TIP3     6275     TIP3     H2       HT       0.417000       1.00800           0
     36176 TIP3     6276     TIP3     OH2      OT      -0.834000       15.9994           0
     36177 TIP3     6276     TIP3     H1       HT       0.417000       1.00800           0
     36178 TIP3     6276     TIP3     H2       HT       0.417000       1.00800           0
     36179 TIP3     6277     TIP3     OH2      OT      -0.834000       15.9994           0
     36180 TIP3     6277     TIP3     H1       HT       0.417000       1.00800           0
     36181 TIP3     6277     TIP3     H2       HT       0.417000       1.00800           0
     36182 TIP3     6278     TIP3     OH2      OT      -0.834000       15.9994           0
     36183 TIP3     6278     TIP3     H1       HT       0.417000       1.00800           0
     36184 TIP3     6278     TIP3     H2       HT       0.417000       1.00800           0
     36185 TIP3     6279     TIP3     OH2      OT      -0.834000       15.9994           0
     36186 TIP3     6279     TIP3     H1       HT       0.417000       1.00800           0
     36187 TIP3     6279     TIP3     H2       HT       0.417000       1.00800           0
     36188 TIP3     6280     TIP3     OH2      OT      -0.834000       15.9994           0
     36189 TIP3     6280     TIP3     H1       HT       0.417000       1.00800           0
     36190 TIP3     6280     TIP3     H2       HT       0.417000       1.00800           0
     36191 TIP3     6281     TIP3     OH2      OT      -0.834000       15.9994           0
     36192 TIP3     6281     TIP3     H1       HT       0.417000       1.00800           0
     36193 TIP3     6281     TIP3     H2       HT       0.417000       1.00800           0
     36194 TIP3     6282     TIP3     OH2      OT      -0.834000       15.9994           0
     36195 TIP3     6282     TIP3     H1       HT       0.417000       1.00800           0
     36196 TIP3     6282     TIP3     H2       HT       0.417000       1.00800           0
     36197 TIP3     6283     TIP3     OH2      OT      -0.834000       15.9994           0
     36198 TIP3     6283     TIP3     H1       HT       0.417000       1.00800           0
     36199 TIP3     6283     TIP3     H2       HT       0.417000       1.00800           0
     36200 TIP3     6284     TIP3     OH2      OT      -0.834000       15.9994           0
     36201 TIP3     6284     TIP3     H1       HT       0.417000       1.00800           0
     36202 TIP3     6284     TIP3     H2       HT       0.417000       1.00800           0
     36203 TIP3     6285     TIP3     OH2      OT      -0.834000       15.9994           0
     36204 TIP3     6285     TIP3     H1       HT       0.417000       1.00800           0
     36205 TIP3     6285     TIP3     H2       HT       0.417000       1.00800           0
     36206 TIP3     6286     TIP3     OH2      OT      -0.834000       15.9994           0
     36207 TIP3     6286     TIP3     H1       HT       0.417000       1.00800           0
     36208 TIP3     6286     TIP3     H2       HT       0.417000       1.00800           0
     36209 TIP3     6287     TIP3     OH2      OT      -0.834000       15.9994           0
     36210 TIP3     6287     TIP3     H1       HT       0.417000       1.00800           0
     36211 TIP3     6287     TIP3     H2       HT       0.417000       1.00800           0
     36212 TIP3     6288     TIP3     OH2      OT      -0.834000       15.9994           0
     36213 TIP3     6288     TIP3     H1       HT       0.417000       1.00800           0
     36214 TIP3     6288     TIP3     H2       HT       0.417000       1.00800           0
     36215 TIP3     6289     TIP3     OH2      OT      -0.834000       15.9994           0
     36216 TIP3     6289     TIP3     H1       HT       0.417000       1.00800           0
     36217 TIP3     6289     TIP3     H2       HT       0.417000       1.00800           0
     36218 TIP3     6290     TIP3     OH2      OT      -0.834000       15.9994           0
     36219 TIP3     6290     TIP3     H1       HT       0.417000       1.00800           0
     36220 TIP3     6290     TIP3     H2       HT       0.417000       1.00800           0
     36221 TIP3     6291     TIP3     OH2      OT      -0.834000       15.9994           0
     36222 TIP3     6291     TIP3     H1       HT       0.417000       1.00800           0
     36223 TIP3     6291     TIP3     H2       HT       0.417000       1.00800           0
     36224 TIP3     6292     TIP3     OH2      OT      -0.834000       15.9994           0
     36225 TIP3     6292     TIP3     H1       HT       0.417000       1.00800           0
     36226 TIP3     6292     TIP3     H2       HT       0.417000       1.00800           0
     36227 TIP3     6293     TIP3     OH2      OT      -0.834000       15.9994           0
     36228 TIP3     6293     TIP3     H1       HT       0.417000       1.00800           0
     36229 TIP3     6293     TIP3     H2       HT       0.417000       1.00800           0
     36230 TIP3     6294     TIP3     OH2      OT      -0.834000       15.9994           0
     36231 TIP3     6294     TIP3     H1       HT       0.417000       1.00800           0
     36232 TIP3     6294     TIP3     H2       HT       0.417000       1.00800           0
     36233 TIP3     6295     TIP3     OH2      OT      -0.834000       15.9994           0
     36234 TIP3     6295     TIP3     H1       HT       0.417000       1.00800           0
     36235 TIP3     6295     TIP3     H2       HT       0.417000       1.00800           0
     36236 TIP3     6296     TIP3     OH2      OT      -0.834000       15.9994           0
     36237 TIP3     6296     TIP3     H1       HT       0.417000       1.00800           0
     36238 TIP3     6296     TIP3     H2       HT       0.417000       1.00800           0
     36239 TIP3     6297     TIP3     OH2      OT      -0.834000       15.9994           0
     36240 TIP3     6297     TIP3     H1       HT       0.417000       1.00800           0
     36241 TIP3     6297     TIP3     H2       HT       0.417000       1.00800           0
     36242 TIP3     6298     TIP3     OH2      OT      -0.834000       15.9994           0
     36243 TIP3     6298     TIP3     H1       HT       0.417000       1.00800           0
     36244 TIP3     6298     TIP3     H2       HT       0.417000       1.00800           0
     36245 TIP3     6299     TIP3     OH2      OT      -0.834000       15.9994           0
     36246 TIP3     6299     TIP3     H1       HT       0.417000       1.00800           0
     36247 TIP3     6299     TIP3     H2       HT       0.417000       1.00800           0
     36248 TIP3     6300     TIP3     OH2      OT      -0.834000       15.9994           0
     36249 TIP3     6300     TIP3     H1       HT       0.417000       1.00800           0
     36250 TIP3     6300     TIP3     H2       HT       0.417000       1.00800           0
     36251 TIP3     6301     TIP3     OH2      OT      -0.834000       15.9994           0
     36252 TIP3     6301     TIP3     H1       HT       0.417000       1.00800           0
     36253 TIP3     6301     TIP3     H2       HT       0.417000       1.00800           0
     36254 TIP3     6302     TIP3     OH2      OT      -0.834000       15.9994           0
     36255 TIP3     6302     TIP3     H1       HT       0.417000       1.00800           0
     36256 TIP3     6302     TIP3     H2       HT       0.417000       1.00800           0
     36257 TIP3     6303     TIP3     OH2      OT      -0.834000       15.9994           0
     36258 TIP3     6303     TIP3     H1       HT       0.417000       1.00800           0
     36259 TIP3     6303     TIP3     H2       HT       0.417000       1.00800           0
     36260 TIP3     6304     TIP3     OH2      OT      -0.834000       15.9994           0
     36261 TIP3     6304     TIP3     H1       HT       0.417000       1.00800           0
     36262 TIP3     6304     TIP3     H2       HT       0.417000       1.00800           0
     36263 TIP3     6305     TIP3     OH2      OT      -0.834000       15.9994           0
     36264 TIP3     6305     TIP3     H1       HT       0.417000       1.00800           0
     36265 TIP3     6305     TIP3     H2       HT       0.417000       1.00800           0
     36266 TIP3     6306     TIP3     OH2      OT      -0.834000       15.9994           0
     36267 TIP3     6306     TIP3     H1       HT       0.417000       1.00800           0
     36268 TIP3     6306     TIP3     H2       HT       0.417000       1.00800           0
     36269 TIP3     6307     TIP3     OH2      OT      -0.834000       15.9994           0
     36270 TIP3     6307     TIP3     H1       HT       0.417000       1.00800           0
     36271 TIP3     6307     TIP3     H2       HT       0.417000       1.00800           0
     36272 TIP3     6308     TIP3     OH2      OT      -0.834000       15.9994           0
     36273 TIP3     6308     TIP3     H1       HT       0.417000       1.00800           0
     36274 TIP3     6308     TIP3     H2       HT       0.417000       1.00800           0
     36275 TIP3     6309     TIP3     OH2      OT      -0.834000       15.9994           0
     36276 TIP3     6309     TIP3     H1       HT       0.417000       1.00800           0
     36277 TIP3     6309     TIP3     H2       HT       0.417000       1.00800           0
     36278 TIP3     6310     TIP3     OH2      OT      -0.834000       15.9994           0
     36279 TIP3     6310     TIP3     H1       HT       0.417000       1.00800           0
     36280 TIP3     6310     TIP3     H2       HT       0.417000       1.00800           0
     36281 TIP3     6311     TIP3     OH2      OT      -0.834000       15.9994           0
     36282 TIP3     6311     TIP3     H1       HT       0.417000       1.00800           0
     36283 TIP3     6311     TIP3     H2       HT       0.417000       1.00800           0
     36284 TIP3     6312     TIP3     OH2      OT      -0.834000       15.9994           0
     36285 TIP3     6312     TIP3     H1       HT       0.417000       1.00800           0
     36286 TIP3     6312     TIP3     H2       HT       0.417000       1.00800           0
     36287 TIP3     6313     TIP3     OH2      OT      -0.834000       15.9994           0
     36288 TIP3     6313     TIP3     H1       HT       0.417000       1.00800           0
     36289 TIP3     6313     TIP3     H2       HT       0.417000       1.00800           0
     36290 TIP3     6314     TIP3     OH2      OT      -0.834000       15.9994           0
     36291 TIP3     6314     TIP3     H1       HT       0.417000       1.00800           0
     36292 TIP3     6314     TIP3     H2       HT       0.417000       1.00800           0
     36293 TIP3     6315     TIP3     OH2      OT      -0.834000       15.9994           0
     36294 TIP3     6315     TIP3     H1       HT       0.417000       1.00800           0
     36295 TIP3     6315     TIP3     H2       HT       0.417000       1.00800           0
     36296 TIP3     6316     TIP3     OH2      OT      -0.834000       15.9994           0
     36297 TIP3     6316     TIP3     H1       HT       0.417000       1.00800           0
     36298 TIP3     6316     TIP3     H2       HT       0.417000       1.00800           0
     36299 TIP3     6317     TIP3     OH2      OT      -0.834000       15.9994           0
     36300 TIP3     6317     TIP3     H1       HT       0.417000       1.00800           0
     36301 TIP3     6317     TIP3     H2       HT       0.417000       1.00800           0
     36302 TIP3     6318     TIP3     OH2      OT      -0.834000       15.9994           0
     36303 TIP3     6318     TIP3     H1       HT       0.417000       1.00800           0
     36304 TIP3     6318     TIP3     H2       HT       0.417000       1.00800           0
     36305 TIP3     6319     TIP3     OH2      OT      -0.834000       15.9994           0
     36306 TIP3     6319     TIP3     H1       HT       0.417000       1.00800           0
     36307 TIP3     6319     TIP3     H2       HT       0.417000       1.00800           0
     36308 TIP3     6320     TIP3     OH2      OT      -0.834000       15.9994           0
     36309 TIP3     6320     TIP3     H1       HT       0.417000       1.00800           0
     36310 TIP3     6320     TIP3     H2       HT       0.417000       1.00800           0
     36311 TIP3     6321     TIP3     OH2      OT      -0.834000       15.9994           0
     36312 TIP3     6321     TIP3     H1       HT       0.417000       1.00800           0
     36313 TIP3     6321     TIP3     H2       HT       0.417000       1.00800           0
     36314 TIP3     6322     TIP3     OH2      OT      -0.834000       15.9994           0
     36315 TIP3     6322     TIP3     H1       HT       0.417000       1.00800           0
     36316 TIP3     6322     TIP3     H2       HT       0.417000       1.00800           0
     36317 TIP3     6323     TIP3     OH2      OT      -0.834000       15.9994           0
     36318 TIP3     6323     TIP3     H1       HT       0.417000       1.00800           0
     36319 TIP3     6323     TIP3     H2       HT       0.417000       1.00800           0
     36320 TIP3     6324     TIP3     OH2      OT      -0.834000       15.9994           0
     36321 TIP3     6324     TIP3     H1       HT       0.417000       1.00800           0
     36322 TIP3     6324     TIP3     H2       HT       0.417000       1.00800           0
     36323 TIP3     6325     TIP3     OH2      OT      -0.834000       15.9994           0
     36324 TIP3     6325     TIP3     H1       HT       0.417000       1.00800           0
     36325 TIP3     6325     TIP3     H2       HT       0.417000       1.00800           0
     36326 TIP3     6326     TIP3     OH2      OT      -0.834000       15.9994           0
     36327 TIP3     6326     TIP3     H1       HT       0.417000       1.00800           0
     36328 TIP3     6326     TIP3     H2       HT       0.417000       1.00800           0
     36329 TIP3     6327     TIP3     OH2      OT      -0.834000       15.9994           0
     36330 TIP3     6327     TIP3     H1       HT       0.417000       1.00800           0
     36331 TIP3     6327     TIP3     H2       HT       0.417000       1.00800           0
     36332 TIP3     6328     TIP3     OH2      OT      -0.834000       15.9994           0
     36333 TIP3     6328     TIP3     H1       HT       0.417000       1.00800           0
     36334 TIP3     6328     TIP3     H2       HT       0.417000       1.00800           0
     36335 TIP3     6329     TIP3     OH2      OT      -0.834000       15.9994           0
     36336 TIP3     6329     TIP3     H1       HT       0.417000       1.00800           0
     36337 TIP3     6329     TIP3     H2       HT       0.417000       1.00800           0
     36338 TIP3     6330     TIP3     OH2      OT      -0.834000       15.9994           0
     36339 TIP3     6330     TIP3     H1       HT       0.417000       1.00800           0
     36340 TIP3     6330     TIP3     H2       HT       0.417000       1.00800           0
     36341 TIP3     6331     TIP3     OH2      OT      -0.834000       15.9994           0
     36342 TIP3     6331     TIP3     H1       HT       0.417000       1.00800           0
     36343 TIP3     6331     TIP3     H2       HT       0.417000       1.00800           0
     36344 TIP3     6332     TIP3     OH2      OT      -0.834000       15.9994           0
     36345 TIP3     6332     TIP3     H1       HT       0.417000       1.00800           0
     36346 TIP3     6332     TIP3     H2       HT       0.417000       1.00800           0
     36347 TIP3     6333     TIP3     OH2      OT      -0.834000       15.9994           0
     36348 TIP3     6333     TIP3     H1       HT       0.417000       1.00800           0
     36349 TIP3     6333     TIP3     H2       HT       0.417000       1.00800           0
     36350 TIP3     6334     TIP3     OH2      OT      -0.834000       15.9994           0
     36351 TIP3     6334     TIP3     H1       HT       0.417000       1.00800           0
     36352 TIP3     6334     TIP3     H2       HT       0.417000       1.00800           0
     36353 TIP3     6335     TIP3     OH2      OT      -0.834000       15.9994           0
     36354 TIP3     6335     TIP3     H1       HT       0.417000       1.00800           0
     36355 TIP3     6335     TIP3     H2       HT       0.417000       1.00800           0
     36356 TIP3     6336     TIP3     OH2      OT      -0.834000       15.9994           0
     36357 TIP3     6336     TIP3     H1       HT       0.417000       1.00800           0
     36358 TIP3     6336     TIP3     H2       HT       0.417000       1.00800           0
     36359 TIP3     6337     TIP3     OH2      OT      -0.834000       15.9994           0
     36360 TIP3     6337     TIP3     H1       HT       0.417000       1.00800           0
     36361 TIP3     6337     TIP3     H2       HT       0.417000       1.00800           0
     36362 TIP3     6338     TIP3     OH2      OT      -0.834000       15.9994           0
     36363 TIP3     6338     TIP3     H1       HT       0.417000       1.00800           0
     36364 TIP3     6338     TIP3     H2       HT       0.417000       1.00800           0
     36365 TIP3     6339     TIP3     OH2      OT      -0.834000       15.9994           0
     36366 TIP3     6339     TIP3     H1       HT       0.417000       1.00800           0
     36367 TIP3     6339     TIP3     H2       HT       0.417000       1.00800           0
     36368 TIP3     6340     TIP3     OH2      OT      -0.834000       15.9994           0
     36369 TIP3     6340     TIP3     H1       HT       0.417000       1.00800           0
     36370 TIP3     6340     TIP3     H2       HT       0.417000       1.00800           0
     36371 TIP3     6341     TIP3     OH2      OT      -0.834000       15.9994           0
     36372 TIP3     6341     TIP3     H1       HT       0.417000       1.00800           0
     36373 TIP3     6341     TIP3     H2       HT       0.417000       1.00800           0
     36374 TIP3     6342     TIP3     OH2      OT      -0.834000       15.9994           0
     36375 TIP3     6342     TIP3     H1       HT       0.417000       1.00800           0
     36376 TIP3     6342     TIP3     H2       HT       0.417000       1.00800           0
     36377 TIP3     6343     TIP3     OH2      OT      -0.834000       15.9994           0
     36378 TIP3     6343     TIP3     H1       HT       0.417000       1.00800           0
     36379 TIP3     6343     TIP3     H2       HT       0.417000       1.00800           0
     36380 TIP3     6344     TIP3     OH2      OT      -0.834000       15.9994           0
     36381 TIP3     6344     TIP3     H1       HT       0.417000       1.00800           0
     36382 TIP3     6344     TIP3     H2       HT       0.417000       1.00800           0
     36383 TIP3     6345     TIP3     OH2      OT      -0.834000       15.9994           0
     36384 TIP3     6345     TIP3     H1       HT       0.417000       1.00800           0
     36385 TIP3     6345     TIP3     H2       HT       0.417000       1.00800           0
     36386 TIP3     6346     TIP3     OH2      OT      -0.834000       15.9994           0
     36387 TIP3     6346     TIP3     H1       HT       0.417000       1.00800           0
     36388 TIP3     6346     TIP3     H2       HT       0.417000       1.00800           0
     36389 TIP3     6347     TIP3     OH2      OT      -0.834000       15.9994           0
     36390 TIP3     6347     TIP3     H1       HT       0.417000       1.00800           0
     36391 TIP3     6347     TIP3     H2       HT       0.417000       1.00800           0
     36392 TIP3     6348     TIP3     OH2      OT      -0.834000       15.9994           0
     36393 TIP3     6348     TIP3     H1       HT       0.417000       1.00800           0
     36394 TIP3     6348     TIP3     H2       HT       0.417000       1.00800           0
     36395 TIP3     6349     TIP3     OH2      OT      -0.834000       15.9994           0
     36396 TIP3     6349     TIP3     H1       HT       0.417000       1.00800           0
     36397 TIP3     6349     TIP3     H2       HT       0.417000       1.00800           0
     36398 TIP3     6350     TIP3     OH2      OT      -0.834000       15.9994           0
     36399 TIP3     6350     TIP3     H1       HT       0.417000       1.00800           0
     36400 TIP3     6350     TIP3     H2       HT       0.417000       1.00800           0
     36401 TIP3     6351     TIP3     OH2      OT      -0.834000       15.9994           0
     36402 TIP3     6351     TIP3     H1       HT       0.417000       1.00800           0
     36403 TIP3     6351     TIP3     H2       HT       0.417000       1.00800           0
     36404 TIP3     6352     TIP3     OH2      OT      -0.834000       15.9994           0
     36405 TIP3     6352     TIP3     H1       HT       0.417000       1.00800           0
     36406 TIP3     6352     TIP3     H2       HT       0.417000       1.00800           0
     36407 TIP3     6353     TIP3     OH2      OT      -0.834000       15.9994           0
     36408 TIP3     6353     TIP3     H1       HT       0.417000       1.00800           0
     36409 TIP3     6353     TIP3     H2       HT       0.417000       1.00800           0
     36410 TIP3     6354     TIP3     OH2      OT      -0.834000       15.9994           0
     36411 TIP3     6354     TIP3     H1       HT       0.417000       1.00800           0
     36412 TIP3     6354     TIP3     H2       HT       0.417000       1.00800           0
     36413 TIP3     6355     TIP3     OH2      OT      -0.834000       15.9994           0
     36414 TIP3     6355     TIP3     H1       HT       0.417000       1.00800           0
     36415 TIP3     6355     TIP3     H2       HT       0.417000       1.00800           0
     36416 TIP3     6356     TIP3     OH2      OT      -0.834000       15.9994           0
     36417 TIP3     6356     TIP3     H1       HT       0.417000       1.00800           0
     36418 TIP3     6356     TIP3     H2       HT       0.417000       1.00800           0
     36419 TIP3     6357     TIP3     OH2      OT      -0.834000       15.9994           0
     36420 TIP3     6357     TIP3     H1       HT       0.417000       1.00800           0
     36421 TIP3     6357     TIP3     H2       HT       0.417000       1.00800           0
     36422 TIP3     6358     TIP3     OH2      OT      -0.834000       15.9994           0
     36423 TIP3     6358     TIP3     H1       HT       0.417000       1.00800           0
     36424 TIP3     6358     TIP3     H2       HT       0.417000       1.00800           0
     36425 TIP3     6359     TIP3     OH2      OT      -0.834000       15.9994           0
     36426 TIP3     6359     TIP3     H1       HT       0.417000       1.00800           0
     36427 TIP3     6359     TIP3     H2       HT       0.417000       1.00800           0
     36428 TIP3     6360     TIP3     OH2      OT      -0.834000       15.9994           0
     36429 TIP3     6360     TIP3     H1       HT       0.417000       1.00800           0
     36430 TIP3     6360     TIP3     H2       HT       0.417000       1.00800           0
     36431 TIP3     6361     TIP3     OH2      OT      -0.834000       15.9994           0
     36432 TIP3     6361     TIP3     H1       HT       0.417000       1.00800           0
     36433 TIP3     6361     TIP3     H2       HT       0.417000       1.00800           0
     36434 TIP3     6362     TIP3     OH2      OT      -0.834000       15.9994           0
     36435 TIP3     6362     TIP3     H1       HT       0.417000       1.00800           0
     36436 TIP3     6362     TIP3     H2       HT       0.417000       1.00800           0
     36437 TIP3     6363     TIP3     OH2      OT      -0.834000       15.9994           0
     36438 TIP3     6363     TIP3     H1       HT       0.417000       1.00800           0
     36439 TIP3     6363     TIP3     H2       HT       0.417000       1.00800           0
     36440 TIP3     6364     TIP3     OH2      OT      -0.834000       15.9994           0
     36441 TIP3     6364     TIP3     H1       HT       0.417000       1.00800           0
     36442 TIP3     6364     TIP3     H2       HT       0.417000       1.00800           0
     36443 TIP3     6365     TIP3     OH2      OT      -0.834000       15.9994           0
     36444 TIP3     6365     TIP3     H1       HT       0.417000       1.00800           0
     36445 TIP3     6365     TIP3     H2       HT       0.417000       1.00800           0
     36446 TIP3     6366     TIP3     OH2      OT      -0.834000       15.9994           0
     36447 TIP3     6366     TIP3     H1       HT       0.417000       1.00800           0
     36448 TIP3     6366     TIP3     H2       HT       0.417000       1.00800           0
     36449 TIP3     6367     TIP3     OH2      OT      -0.834000       15.9994           0
     36450 TIP3     6367     TIP3     H1       HT       0.417000       1.00800           0
     36451 TIP3     6367     TIP3     H2       HT       0.417000       1.00800           0
     36452 TIP3     6368     TIP3     OH2      OT      -0.834000       15.9994           0
     36453 TIP3     6368     TIP3     H1       HT       0.417000       1.00800           0
     36454 TIP3     6368     TIP3     H2       HT       0.417000       1.00800           0
     36455 TIP3     6369     TIP3     OH2      OT      -0.834000       15.9994           0
     36456 TIP3     6369     TIP3     H1       HT       0.417000       1.00800           0
     36457 TIP3     6369     TIP3     H2       HT       0.417000       1.00800           0
     36458 TIP3     6370     TIP3     OH2      OT      -0.834000       15.9994           0
     36459 TIP3     6370     TIP3     H1       HT       0.417000       1.00800           0
     36460 TIP3     6370     TIP3     H2       HT       0.417000       1.00800           0
     36461 TIP3     6371     TIP3     OH2      OT      -0.834000       15.9994           0
     36462 TIP3     6371     TIP3     H1       HT       0.417000       1.00800           0
     36463 TIP3     6371     TIP3     H2       HT       0.417000       1.00800           0
     36464 TIP3     6372     TIP3     OH2      OT      -0.834000       15.9994           0
     36465 TIP3     6372     TIP3     H1       HT       0.417000       1.00800           0
     36466 TIP3     6372     TIP3     H2       HT       0.417000       1.00800           0
     36467 TIP3     6373     TIP3     OH2      OT      -0.834000       15.9994           0
     36468 TIP3     6373     TIP3     H1       HT       0.417000       1.00800           0
     36469 TIP3     6373     TIP3     H2       HT       0.417000       1.00800           0
     36470 TIP3     6374     TIP3     OH2      OT      -0.834000       15.9994           0
     36471 TIP3     6374     TIP3     H1       HT       0.417000       1.00800           0
     36472 TIP3     6374     TIP3     H2       HT       0.417000       1.00800           0
     36473 TIP3     6375     TIP3     OH2      OT      -0.834000       15.9994           0
     36474 TIP3     6375     TIP3     H1       HT       0.417000       1.00800           0
     36475 TIP3     6375     TIP3     H2       HT       0.417000       1.00800           0
     36476 TIP3     6376     TIP3     OH2      OT      -0.834000       15.9994           0
     36477 TIP3     6376     TIP3     H1       HT       0.417000       1.00800           0
     36478 TIP3     6376     TIP3     H2       HT       0.417000       1.00800           0
     36479 TIP3     6377     TIP3     OH2      OT      -0.834000       15.9994           0
     36480 TIP3     6377     TIP3     H1       HT       0.417000       1.00800           0
     36481 TIP3     6377     TIP3     H2       HT       0.417000       1.00800           0
     36482 TIP3     6378     TIP3     OH2      OT      -0.834000       15.9994           0
     36483 TIP3     6378     TIP3     H1       HT       0.417000       1.00800           0
     36484 TIP3     6378     TIP3     H2       HT       0.417000       1.00800           0
     36485 TIP3     6379     TIP3     OH2      OT      -0.834000       15.9994           0
     36486 TIP3     6379     TIP3     H1       HT       0.417000       1.00800           0
     36487 TIP3     6379     TIP3     H2       HT       0.417000       1.00800           0
     36488 TIP3     6380     TIP3     OH2      OT      -0.834000       15.9994           0
     36489 TIP3     6380     TIP3     H1       HT       0.417000       1.00800           0
     36490 TIP3     6380     TIP3     H2       HT       0.417000       1.00800           0
     36491 TIP3     6381     TIP3     OH2      OT      -0.834000       15.9994           0
     36492 TIP3     6381     TIP3     H1       HT       0.417000       1.00800           0
     36493 TIP3     6381     TIP3     H2       HT       0.417000       1.00800           0
     36494 TIP3     6382     TIP3     OH2      OT      -0.834000       15.9994           0
     36495 TIP3     6382     TIP3     H1       HT       0.417000       1.00800           0
     36496 TIP3     6382     TIP3     H2       HT       0.417000       1.00800           0
     36497 TIP3     6383     TIP3     OH2      OT      -0.834000       15.9994           0
     36498 TIP3     6383     TIP3     H1       HT       0.417000       1.00800           0
     36499 TIP3     6383     TIP3     H2       HT       0.417000       1.00800           0
     36500 TIP3     6384     TIP3     OH2      OT      -0.834000       15.9994           0
     36501 TIP3     6384     TIP3     H1       HT       0.417000       1.00800           0
     36502 TIP3     6384     TIP3     H2       HT       0.417000       1.00800           0
     36503 TIP3     6385     TIP3     OH2      OT      -0.834000       15.9994           0
     36504 TIP3     6385     TIP3     H1       HT       0.417000       1.00800           0
     36505 TIP3     6385     TIP3     H2       HT       0.417000       1.00800           0
     36506 TIP3     6386     TIP3     OH2      OT      -0.834000       15.9994           0
     36507 TIP3     6386     TIP3     H1       HT       0.417000       1.00800           0
     36508 TIP3     6386     TIP3     H2       HT       0.417000       1.00800           0
     36509 TIP3     6387     TIP3     OH2      OT      -0.834000       15.9994           0
     36510 TIP3     6387     TIP3     H1       HT       0.417000       1.00800           0
     36511 TIP3     6387     TIP3     H2       HT       0.417000       1.00800           0
     36512 TIP3     6388     TIP3     OH2      OT      -0.834000       15.9994           0
     36513 TIP3     6388     TIP3     H1       HT       0.417000       1.00800           0
     36514 TIP3     6388     TIP3     H2       HT       0.417000       1.00800           0
     36515 TIP3     6389     TIP3     OH2      OT      -0.834000       15.9994           0
     36516 TIP3     6389     TIP3     H1       HT       0.417000       1.00800           0
     36517 TIP3     6389     TIP3     H2       HT       0.417000       1.00800           0
     36518 TIP3     6390     TIP3     OH2      OT      -0.834000       15.9994           0
     36519 TIP3     6390     TIP3     H1       HT       0.417000       1.00800           0
     36520 TIP3     6390     TIP3     H2       HT       0.417000       1.00800           0
     36521 TIP3     6391     TIP3     OH2      OT      -0.834000       15.9994           0
     36522 TIP3     6391     TIP3     H1       HT       0.417000       1.00800           0
     36523 TIP3     6391     TIP3     H2       HT       0.417000       1.00800           0
     36524 TIP3     6392     TIP3     OH2      OT      -0.834000       15.9994           0
     36525 TIP3     6392     TIP3     H1       HT       0.417000       1.00800           0
     36526 TIP3     6392     TIP3     H2       HT       0.417000       1.00800           0
     36527 TIP3     6393     TIP3     OH2      OT      -0.834000       15.9994           0
     36528 TIP3     6393     TIP3     H1       HT       0.417000       1.00800           0
     36529 TIP3     6393     TIP3     H2       HT       0.417000       1.00800           0
     36530 TIP3     6394     TIP3     OH2      OT      -0.834000       15.9994           0
     36531 TIP3     6394     TIP3     H1       HT       0.417000       1.00800           0
     36532 TIP3     6394     TIP3     H2       HT       0.417000       1.00800           0
     36533 TIP3     6395     TIP3     OH2      OT      -0.834000       15.9994           0
     36534 TIP3     6395     TIP3     H1       HT       0.417000       1.00800           0
     36535 TIP3     6395     TIP3     H2       HT       0.417000       1.00800           0
     36536 TIP3     6396     TIP3     OH2      OT      -0.834000       15.9994           0
     36537 TIP3     6396     TIP3     H1       HT       0.417000       1.00800           0
     36538 TIP3     6396     TIP3     H2       HT       0.417000       1.00800           0
     36539 TIP3     6397     TIP3     OH2      OT      -0.834000       15.9994           0
     36540 TIP3     6397     TIP3     H1       HT       0.417000       1.00800           0
     36541 TIP3     6397     TIP3     H2       HT       0.417000       1.00800           0
     36542 TIP3     6398     TIP3     OH2      OT      -0.834000       15.9994           0
     36543 TIP3     6398     TIP3     H1       HT       0.417000       1.00800           0
     36544 TIP3     6398     TIP3     H2       HT       0.417000       1.00800           0
     36545 TIP3     6399     TIP3     OH2      OT      -0.834000       15.9994           0
     36546 TIP3     6399     TIP3     H1       HT       0.417000       1.00800           0
     36547 TIP3     6399     TIP3     H2       HT       0.417000       1.00800           0
     36548 TIP3     6400     TIP3     OH2      OT      -0.834000       15.9994           0
     36549 TIP3     6400     TIP3     H1       HT       0.417000       1.00800           0
     36550 TIP3     6400     TIP3     H2       HT       0.417000       1.00800           0
     36551 TIP3     6401     TIP3     OH2      OT      -0.834000       15.9994           0
     36552 TIP3     6401     TIP3     H1       HT       0.417000       1.00800           0
     36553 TIP3     6401     TIP3     H2       HT       0.417000       1.00800           0
     36554 TIP3     6402     TIP3     OH2      OT      -0.834000       15.9994           0
     36555 TIP3     6402     TIP3     H1       HT       0.417000       1.00800           0
     36556 TIP3     6402     TIP3     H2       HT       0.417000       1.00800           0
     36557 TIP3     6403     TIP3     OH2      OT      -0.834000       15.9994           0
     36558 TIP3     6403     TIP3     H1       HT       0.417000       1.00800           0
     36559 TIP3     6403     TIP3     H2       HT       0.417000       1.00800           0
     36560 TIP3     6404     TIP3     OH2      OT      -0.834000       15.9994           0
     36561 TIP3     6404     TIP3     H1       HT       0.417000       1.00800           0
     36562 TIP3     6404     TIP3     H2       HT       0.417000       1.00800           0
     36563 TIP3     6405     TIP3     OH2      OT      -0.834000       15.9994           0
     36564 TIP3     6405     TIP3     H1       HT       0.417000       1.00800           0
     36565 TIP3     6405     TIP3     H2       HT       0.417000       1.00800           0
     36566 TIP3     6406     TIP3     OH2      OT      -0.834000       15.9994           0
     36567 TIP3     6406     TIP3     H1       HT       0.417000       1.00800           0
     36568 TIP3     6406     TIP3     H2       HT       0.417000       1.00800           0
     36569 TIP3     6407     TIP3     OH2      OT      -0.834000       15.9994           0
     36570 TIP3     6407     TIP3     H1       HT       0.417000       1.00800           0
     36571 TIP3     6407     TIP3     H2       HT       0.417000       1.00800           0
     36572 TIP3     6408     TIP3     OH2      OT      -0.834000       15.9994           0
     36573 TIP3     6408     TIP3     H1       HT       0.417000       1.00800           0
     36574 TIP3     6408     TIP3     H2       HT       0.417000       1.00800           0
     36575 TIP3     6409     TIP3     OH2      OT      -0.834000       15.9994           0
     36576 TIP3     6409     TIP3     H1       HT       0.417000       1.00800           0
     36577 TIP3     6409     TIP3     H2       HT       0.417000       1.00800           0
     36578 TIP3     6410     TIP3     OH2      OT      -0.834000       15.9994           0
     36579 TIP3     6410     TIP3     H1       HT       0.417000       1.00800           0
     36580 TIP3     6410     TIP3     H2       HT       0.417000       1.00800           0
     36581 TIP3     6411     TIP3     OH2      OT      -0.834000       15.9994           0
     36582 TIP3     6411     TIP3     H1       HT       0.417000       1.00800           0
     36583 TIP3     6411     TIP3     H2       HT       0.417000       1.00800           0
     36584 TIP3     6412     TIP3     OH2      OT      -0.834000       15.9994           0
     36585 TIP3     6412     TIP3     H1       HT       0.417000       1.00800           0
     36586 TIP3     6412     TIP3     H2       HT       0.417000       1.00800           0
     36587 TIP3     6413     TIP3     OH2      OT      -0.834000       15.9994           0
     36588 TIP3     6413     TIP3     H1       HT       0.417000       1.00800           0
     36589 TIP3     6413     TIP3     H2       HT       0.417000       1.00800           0
     36590 TIP3     6414     TIP3     OH2      OT      -0.834000       15.9994           0
     36591 TIP3     6414     TIP3     H1       HT       0.417000       1.00800           0
     36592 TIP3     6414     TIP3     H2       HT       0.417000       1.00800           0
     36593 TIP3     6415     TIP3     OH2      OT      -0.834000       15.9994           0
     36594 TIP3     6415     TIP3     H1       HT       0.417000       1.00800           0
     36595 TIP3     6415     TIP3     H2       HT       0.417000       1.00800           0
     36596 TIP3     6416     TIP3     OH2      OT      -0.834000       15.9994           0
     36597 TIP3     6416     TIP3     H1       HT       0.417000       1.00800           0
     36598 TIP3     6416     TIP3     H2       HT       0.417000       1.00800           0
     36599 TIP3     6417     TIP3     OH2      OT      -0.834000       15.9994           0
     36600 TIP3     6417     TIP3     H1       HT       0.417000       1.00800           0
     36601 TIP3     6417     TIP3     H2       HT       0.417000       1.00800           0
     36602 TIP3     6418     TIP3     OH2      OT      -0.834000       15.9994           0
     36603 TIP3     6418     TIP3     H1       HT       0.417000       1.00800           0
     36604 TIP3     6418     TIP3     H2       HT       0.417000       1.00800           0
     36605 TIP3     6419     TIP3     OH2      OT      -0.834000       15.9994           0
     36606 TIP3     6419     TIP3     H1       HT       0.417000       1.00800           0
     36607 TIP3     6419     TIP3     H2       HT       0.417000       1.00800           0
     36608 TIP3     6420     TIP3     OH2      OT      -0.834000       15.9994           0
     36609 TIP3     6420     TIP3     H1       HT       0.417000       1.00800           0
     36610 TIP3     6420     TIP3     H2       HT       0.417000       1.00800           0
     36611 TIP3     6421     TIP3     OH2      OT      -0.834000       15.9994           0
     36612 TIP3     6421     TIP3     H1       HT       0.417000       1.00800           0
     36613 TIP3     6421     TIP3     H2       HT       0.417000       1.00800           0
     36614 TIP3     6422     TIP3     OH2      OT      -0.834000       15.9994           0
     36615 TIP3     6422     TIP3     H1       HT       0.417000       1.00800           0
     36616 TIP3     6422     TIP3     H2       HT       0.417000       1.00800           0
     36617 TIP3     6423     TIP3     OH2      OT      -0.834000       15.9994           0
     36618 TIP3     6423     TIP3     H1       HT       0.417000       1.00800           0
     36619 TIP3     6423     TIP3     H2       HT       0.417000       1.00800           0
     36620 TIP3     6424     TIP3     OH2      OT      -0.834000       15.9994           0
     36621 TIP3     6424     TIP3     H1       HT       0.417000       1.00800           0
     36622 TIP3     6424     TIP3     H2       HT       0.417000       1.00800           0
     36623 TIP3     6425     TIP3     OH2      OT      -0.834000       15.9994           0
     36624 TIP3     6425     TIP3     H1       HT       0.417000       1.00800           0
     36625 TIP3     6425     TIP3     H2       HT       0.417000       1.00800           0
     36626 TIP3     6426     TIP3     OH2      OT      -0.834000       15.9994           0
     36627 TIP3     6426     TIP3     H1       HT       0.417000       1.00800           0
     36628 TIP3     6426     TIP3     H2       HT       0.417000       1.00800           0
     36629 TIP3     6427     TIP3     OH2      OT      -0.834000       15.9994           0
     36630 TIP3     6427     TIP3     H1       HT       0.417000       1.00800           0
     36631 TIP3     6427     TIP3     H2       HT       0.417000       1.00800           0
     36632 TIP3     6428     TIP3     OH2      OT      -0.834000       15.9994           0
     36633 TIP3     6428     TIP3     H1       HT       0.417000       1.00800           0
     36634 TIP3     6428     TIP3     H2       HT       0.417000       1.00800           0
     36635 TIP3     6429     TIP3     OH2      OT      -0.834000       15.9994           0
     36636 TIP3     6429     TIP3     H1       HT       0.417000       1.00800           0
     36637 TIP3     6429     TIP3     H2       HT       0.417000       1.00800           0
     36638 TIP3     6430     TIP3     OH2      OT      -0.834000       15.9994           0
     36639 TIP3     6430     TIP3     H1       HT       0.417000       1.00800           0
     36640 TIP3     6430     TIP3     H2       HT       0.417000       1.00800           0
     36641 TIP3     6431     TIP3     OH2      OT      -0.834000       15.9994           0
     36642 TIP3     6431     TIP3     H1       HT       0.417000       1.00800           0
     36643 TIP3     6431     TIP3     H2       HT       0.417000       1.00800           0
     36644 TIP3     6432     TIP3     OH2      OT      -0.834000       15.9994           0
     36645 TIP3     6432     TIP3     H1       HT       0.417000       1.00800           0
     36646 TIP3     6432     TIP3     H2       HT       0.417000       1.00800           0
     36647 TIP3     6433     TIP3     OH2      OT      -0.834000       15.9994           0
     36648 TIP3     6433     TIP3     H1       HT       0.417000       1.00800           0
     36649 TIP3     6433     TIP3     H2       HT       0.417000       1.00800           0
     36650 TIP3     6434     TIP3     OH2      OT      -0.834000       15.9994           0
     36651 TIP3     6434     TIP3     H1       HT       0.417000       1.00800           0
     36652 TIP3     6434     TIP3     H2       HT       0.417000       1.00800           0
     36653 TIP3     6435     TIP3     OH2      OT      -0.834000       15.9994           0
     36654 TIP3     6435     TIP3     H1       HT       0.417000       1.00800           0
     36655 TIP3     6435     TIP3     H2       HT       0.417000       1.00800           0
     36656 TIP3     6436     TIP3     OH2      OT      -0.834000       15.9994           0
     36657 TIP3     6436     TIP3     H1       HT       0.417000       1.00800           0
     36658 TIP3     6436     TIP3     H2       HT       0.417000       1.00800           0
     36659 TIP3     6437     TIP3     OH2      OT      -0.834000       15.9994           0
     36660 TIP3     6437     TIP3     H1       HT       0.417000       1.00800           0
     36661 TIP3     6437     TIP3     H2       HT       0.417000       1.00800           0
     36662 TIP3     6438     TIP3     OH2      OT      -0.834000       15.9994           0
     36663 TIP3     6438     TIP3     H1       HT       0.417000       1.00800           0
     36664 TIP3     6438     TIP3     H2       HT       0.417000       1.00800           0
     36665 TIP3     6439     TIP3     OH2      OT      -0.834000       15.9994           0
     36666 TIP3     6439     TIP3     H1       HT       0.417000       1.00800           0
     36667 TIP3     6439     TIP3     H2       HT       0.417000       1.00800           0
     36668 TIP3     6440     TIP3     OH2      OT      -0.834000       15.9994           0
     36669 TIP3     6440     TIP3     H1       HT       0.417000       1.00800           0
     36670 TIP3     6440     TIP3     H2       HT       0.417000       1.00800           0
     36671 TIP3     6441     TIP3     OH2      OT      -0.834000       15.9994           0
     36672 TIP3     6441     TIP3     H1       HT       0.417000       1.00800           0
     36673 TIP3     6441     TIP3     H2       HT       0.417000       1.00800           0
     36674 TIP3     6442     TIP3     OH2      OT      -0.834000       15.9994           0
     36675 TIP3     6442     TIP3     H1       HT       0.417000       1.00800           0
     36676 TIP3     6442     TIP3     H2       HT       0.417000       1.00800           0
     36677 TIP3     6443     TIP3     OH2      OT      -0.834000       15.9994           0
     36678 TIP3     6443     TIP3     H1       HT       0.417000       1.00800           0
     36679 TIP3     6443     TIP3     H2       HT       0.417000       1.00800           0
     36680 TIP3     6444     TIP3     OH2      OT      -0.834000       15.9994           0
     36681 TIP3     6444     TIP3     H1       HT       0.417000       1.00800           0
     36682 TIP3     6444     TIP3     H2       HT       0.417000       1.00800           0
     36683 TIP3     6445     TIP3     OH2      OT      -0.834000       15.9994           0
     36684 TIP3     6445     TIP3     H1       HT       0.417000       1.00800           0
     36685 TIP3     6445     TIP3     H2       HT       0.417000       1.00800           0
     36686 TIP3     6446     TIP3     OH2      OT      -0.834000       15.9994           0
     36687 TIP3     6446     TIP3     H1       HT       0.417000       1.00800           0
     36688 TIP3     6446     TIP3     H2       HT       0.417000       1.00800           0
     36689 TIP3     6447     TIP3     OH2      OT      -0.834000       15.9994           0
     36690 TIP3     6447     TIP3     H1       HT       0.417000       1.00800           0
     36691 TIP3     6447     TIP3     H2       HT       0.417000       1.00800           0
     36692 TIP3     6448     TIP3     OH2      OT      -0.834000       15.9994           0
     36693 TIP3     6448     TIP3     H1       HT       0.417000       1.00800           0
     36694 TIP3     6448     TIP3     H2       HT       0.417000       1.00800           0
     36695 TIP3     6449     TIP3     OH2      OT      -0.834000       15.9994           0
     36696 TIP3     6449     TIP3     H1       HT       0.417000       1.00800           0
     36697 TIP3     6449     TIP3     H2       HT       0.417000       1.00800           0
     36698 TIP3     6450     TIP3     OH2      OT      -0.834000       15.9994           0
     36699 TIP3     6450     TIP3     H1       HT       0.417000       1.00800           0
     36700 TIP3     6450     TIP3     H2       HT       0.417000       1.00800           0
     36701 TIP3     6451     TIP3     OH2      OT      -0.834000       15.9994           0
     36702 TIP3     6451     TIP3     H1       HT       0.417000       1.00800           0
     36703 TIP3     6451     TIP3     H2       HT       0.417000       1.00800           0
     36704 TIP3     6452     TIP3     OH2      OT      -0.834000       15.9994           0
     36705 TIP3     6452     TIP3     H1       HT       0.417000       1.00800           0
     36706 TIP3     6452     TIP3     H2       HT       0.417000       1.00800           0
     36707 TIP3     6453     TIP3     OH2      OT      -0.834000       15.9994           0
     36708 TIP3     6453     TIP3     H1       HT       0.417000       1.00800           0
     36709 TIP3     6453     TIP3     H2       HT       0.417000       1.00800           0
     36710 TIP3     6454     TIP3     OH2      OT      -0.834000       15.9994           0
     36711 TIP3     6454     TIP3     H1       HT       0.417000       1.00800           0
     36712 TIP3     6454     TIP3     H2       HT       0.417000       1.00800           0
     36713 TIP3     6455     TIP3     OH2      OT      -0.834000       15.9994           0
     36714 TIP3     6455     TIP3     H1       HT       0.417000       1.00800           0
     36715 TIP3     6455     TIP3     H2       HT       0.417000       1.00800           0
     36716 TIP3     6456     TIP3     OH2      OT      -0.834000       15.9994           0
     36717 TIP3     6456     TIP3     H1       HT       0.417000       1.00800           0
     36718 TIP3     6456     TIP3     H2       HT       0.417000       1.00800           0
     36719 TIP3     6457     TIP3     OH2      OT      -0.834000       15.9994           0
     36720 TIP3     6457     TIP3     H1       HT       0.417000       1.00800           0
     36721 TIP3     6457     TIP3     H2       HT       0.417000       1.00800           0
     36722 TIP3     6458     TIP3     OH2      OT      -0.834000       15.9994           0
     36723 TIP3     6458     TIP3     H1       HT       0.417000       1.00800           0
     36724 TIP3     6458     TIP3     H2       HT       0.417000       1.00800           0
     36725 TIP3     6459     TIP3     OH2      OT      -0.834000       15.9994           0
     36726 TIP3     6459     TIP3     H1       HT       0.417000       1.00800           0
     36727 TIP3     6459     TIP3     H2       HT       0.417000       1.00800           0
     36728 TIP3     6460     TIP3     OH2      OT      -0.834000       15.9994           0
     36729 TIP3     6460     TIP3     H1       HT       0.417000       1.00800           0
     36730 TIP3     6460     TIP3     H2       HT       0.417000       1.00800           0
     36731 TIP3     6461     TIP3     OH2      OT      -0.834000       15.9994           0
     36732 TIP3     6461     TIP3     H1       HT       0.417000       1.00800           0
     36733 TIP3     6461     TIP3     H2       HT       0.417000       1.00800           0
     36734 TIP3     6462     TIP3     OH2      OT      -0.834000       15.9994           0
     36735 TIP3     6462     TIP3     H1       HT       0.417000       1.00800           0
     36736 TIP3     6462     TIP3     H2       HT       0.417000       1.00800           0
     36737 TIP3     6463     TIP3     OH2      OT      -0.834000       15.9994           0
     36738 TIP3     6463     TIP3     H1       HT       0.417000       1.00800           0
     36739 TIP3     6463     TIP3     H2       HT       0.417000       1.00800           0
     36740 TIP3     6464     TIP3     OH2      OT      -0.834000       15.9994           0
     36741 TIP3     6464     TIP3     H1       HT       0.417000       1.00800           0
     36742 TIP3     6464     TIP3     H2       HT       0.417000       1.00800           0
     36743 TIP3     6465     TIP3     OH2      OT      -0.834000       15.9994           0
     36744 TIP3     6465     TIP3     H1       HT       0.417000       1.00800           0
     36745 TIP3     6465     TIP3     H2       HT       0.417000       1.00800           0
     36746 TIP3     6466     TIP3     OH2      OT      -0.834000       15.9994           0
     36747 TIP3     6466     TIP3     H1       HT       0.417000       1.00800           0
     36748 TIP3     6466     TIP3     H2       HT       0.417000       1.00800           0
     36749 TIP3     6467     TIP3     OH2      OT      -0.834000       15.9994           0
     36750 TIP3     6467     TIP3     H1       HT       0.417000       1.00800           0
     36751 TIP3     6467     TIP3     H2       HT       0.417000       1.00800           0
     36752 TIP3     6468     TIP3     OH2      OT      -0.834000       15.9994           0
     36753 TIP3     6468     TIP3     H1       HT       0.417000       1.00800           0
     36754 TIP3     6468     TIP3     H2       HT       0.417000       1.00800           0
     36755 TIP3     6469     TIP3     OH2      OT      -0.834000       15.9994           0
     36756 TIP3     6469     TIP3     H1       HT       0.417000       1.00800           0
     36757 TIP3     6469     TIP3     H2       HT       0.417000       1.00800           0
     36758 TIP3     6470     TIP3     OH2      OT      -0.834000       15.9994           0
     36759 TIP3     6470     TIP3     H1       HT       0.417000       1.00800           0
     36760 TIP3     6470     TIP3     H2       HT       0.417000       1.00800           0
     36761 TIP3     6471     TIP3     OH2      OT      -0.834000       15.9994           0
     36762 TIP3     6471     TIP3     H1       HT       0.417000       1.00800           0
     36763 TIP3     6471     TIP3     H2       HT       0.417000       1.00800           0
     36764 TIP3     6472     TIP3     OH2      OT      -0.834000       15.9994           0
     36765 TIP3     6472     TIP3     H1       HT       0.417000       1.00800           0
     36766 TIP3     6472     TIP3     H2       HT       0.417000       1.00800           0
     36767 TIP3     6473     TIP3     OH2      OT      -0.834000       15.9994           0
     36768 TIP3     6473     TIP3     H1       HT       0.417000       1.00800           0
     36769 TIP3     6473     TIP3     H2       HT       0.417000       1.00800           0
     36770 TIP3     6474     TIP3     OH2      OT      -0.834000       15.9994           0
     36771 TIP3     6474     TIP3     H1       HT       0.417000       1.00800           0
     36772 TIP3     6474     TIP3     H2       HT       0.417000       1.00800           0
     36773 TIP3     6475     TIP3     OH2      OT      -0.834000       15.9994           0
     36774 TIP3     6475     TIP3     H1       HT       0.417000       1.00800           0
     36775 TIP3     6475     TIP3     H2       HT       0.417000       1.00800           0
     36776 TIP3     6476     TIP3     OH2      OT      -0.834000       15.9994           0
     36777 TIP3     6476     TIP3     H1       HT       0.417000       1.00800           0
     36778 TIP3     6476     TIP3     H2       HT       0.417000       1.00800           0
     36779 TIP3     6477     TIP3     OH2      OT      -0.834000       15.9994           0
     36780 TIP3     6477     TIP3     H1       HT       0.417000       1.00800           0
     36781 TIP3     6477     TIP3     H2       HT       0.417000       1.00800           0
     36782 TIP3     6478     TIP3     OH2      OT      -0.834000       15.9994           0
     36783 TIP3     6478     TIP3     H1       HT       0.417000       1.00800           0
     36784 TIP3     6478     TIP3     H2       HT       0.417000       1.00800           0
     36785 TIP3     6479     TIP3     OH2      OT      -0.834000       15.9994           0
     36786 TIP3     6479     TIP3     H1       HT       0.417000       1.00800           0
     36787 TIP3     6479     TIP3     H2       HT       0.417000       1.00800           0
     36788 TIP3     6480     TIP3     OH2      OT      -0.834000       15.9994           0
     36789 TIP3     6480     TIP3     H1       HT       0.417000       1.00800           0
     36790 TIP3     6480     TIP3     H2       HT       0.417000       1.00800           0
     36791 TIP3     6481     TIP3     OH2      OT      -0.834000       15.9994           0
     36792 TIP3     6481     TIP3     H1       HT       0.417000       1.00800           0
     36793 TIP3     6481     TIP3     H2       HT       0.417000       1.00800           0
     36794 TIP3     6482     TIP3     OH2      OT      -0.834000       15.9994           0
     36795 TIP3     6482     TIP3     H1       HT       0.417000       1.00800           0
     36796 TIP3     6482     TIP3     H2       HT       0.417000       1.00800           0
     36797 TIP3     6483     TIP3     OH2      OT      -0.834000       15.9994           0
     36798 TIP3     6483     TIP3     H1       HT       0.417000       1.00800           0
     36799 TIP3     6483     TIP3     H2       HT       0.417000       1.00800           0
     36800 TIP3     6484     TIP3     OH2      OT      -0.834000       15.9994           0
     36801 TIP3     6484     TIP3     H1       HT       0.417000       1.00800           0
     36802 TIP3     6484     TIP3     H2       HT       0.417000       1.00800           0
     36803 TIP3     6485     TIP3     OH2      OT      -0.834000       15.9994           0
     36804 TIP3     6485     TIP3     H1       HT       0.417000       1.00800           0
     36805 TIP3     6485     TIP3     H2       HT       0.417000       1.00800           0
     36806 TIP3     6486     TIP3     OH2      OT      -0.834000       15.9994           0
     36807 TIP3     6486     TIP3     H1       HT       0.417000       1.00800           0
     36808 TIP3     6486     TIP3     H2       HT       0.417000       1.00800           0
     36809 TIP3     6487     TIP3     OH2      OT      -0.834000       15.9994           0
     36810 TIP3     6487     TIP3     H1       HT       0.417000       1.00800           0
     36811 TIP3     6487     TIP3     H2       HT       0.417000       1.00800           0
     36812 TIP3     6488     TIP3     OH2      OT      -0.834000       15.9994           0
     36813 TIP3     6488     TIP3     H1       HT       0.417000       1.00800           0
     36814 TIP3     6488     TIP3     H2       HT       0.417000       1.00800           0
     36815 TIP3     6489     TIP3     OH2      OT      -0.834000       15.9994           0
     36816 TIP3     6489     TIP3     H1       HT       0.417000       1.00800           0
     36817 TIP3     6489     TIP3     H2       HT       0.417000       1.00800           0
     36818 TIP3     6490     TIP3     OH2      OT      -0.834000       15.9994           0
     36819 TIP3     6490     TIP3     H1       HT       0.417000       1.00800           0
     36820 TIP3     6490     TIP3     H2       HT       0.417000       1.00800           0
     36821 TIP3     6491     TIP3     OH2      OT      -0.834000       15.9994           0
     36822 TIP3     6491     TIP3     H1       HT       0.417000       1.00800           0
     36823 TIP3     6491     TIP3     H2       HT       0.417000       1.00800           0
     36824 TIP3     6492     TIP3     OH2      OT      -0.834000       15.9994           0
     36825 TIP3     6492     TIP3     H1       HT       0.417000       1.00800           0
     36826 TIP3     6492     TIP3     H2       HT       0.417000       1.00800           0
     36827 TIP3     6493     TIP3     OH2      OT      -0.834000       15.9994           0
     36828 TIP3     6493     TIP3     H1       HT       0.417000       1.00800           0
     36829 TIP3     6493     TIP3     H2       HT       0.417000       1.00800           0
     36830 TIP3     6494     TIP3     OH2      OT      -0.834000       15.9994           0
     36831 TIP3     6494     TIP3     H1       HT       0.417000       1.00800           0
     36832 TIP3     6494     TIP3     H2       HT       0.417000       1.00800           0
     36833 TIP3     6495     TIP3     OH2      OT      -0.834000       15.9994           0
     36834 TIP3     6495     TIP3     H1       HT       0.417000       1.00800           0
     36835 TIP3     6495     TIP3     H2       HT       0.417000       1.00800           0
     36836 TIP3     6496     TIP3     OH2      OT      -0.834000       15.9994           0
     36837 TIP3     6496     TIP3     H1       HT       0.417000       1.00800           0
     36838 TIP3     6496     TIP3     H2       HT       0.417000       1.00800           0
     36839 TIP3     6497     TIP3     OH2      OT      -0.834000       15.9994           0
     36840 TIP3     6497     TIP3     H1       HT       0.417000       1.00800           0
     36841 TIP3     6497     TIP3     H2       HT       0.417000       1.00800           0
     36842 TIP3     6498     TIP3     OH2      OT      -0.834000       15.9994           0
     36843 TIP3     6498     TIP3     H1       HT       0.417000       1.00800           0
     36844 TIP3     6498     TIP3     H2       HT       0.417000       1.00800           0
     36845 TIP3     6499     TIP3     OH2      OT      -0.834000       15.9994           0
     36846 TIP3     6499     TIP3     H1       HT       0.417000       1.00800           0
     36847 TIP3     6499     TIP3     H2       HT       0.417000       1.00800           0
     36848 TIP3     6500     TIP3     OH2      OT      -0.834000       15.9994           0
     36849 TIP3     6500     TIP3     H1       HT       0.417000       1.00800           0
     36850 TIP3     6500     TIP3     H2       HT       0.417000       1.00800           0
     36851 IONS     1        POT      POT      POT      1.000000       39.0983           0
     36852 IONS     2        POT      POT      POT      1.000000       39.0983           0
     36853 IONS     3        POT      POT      POT      1.000000       39.0983           0
     36854 IONS     4        POT      POT      POT      1.000000       39.0983           0
     36855 IONS     5        POT      POT      POT      1.000000       39.0983           0
     36856 IONS     6        POT      POT      POT      1.000000       39.0983           0
     36857 IONS     7        POT      POT      POT      1.000000       39.0983           0
     36858 IONS     8        POT      POT      POT      1.000000       39.0983           0
     36859 IONS     9        POT      POT      POT      1.000000       39.0983           0
     36860 IONS     10       POT      POT      POT      1.000000       39.0983           0
     36861 IONS     11       POT      POT      POT      1.000000       39.0983           0
     36862 IONS     12       POT      POT      POT      1.000000       39.0983           0
     36863 IONS     13       POT      POT      POT      1.000000       39.0983           0
     36864 IONS     14       POT      POT      POT      1.000000       39.0983           0
     36865 IONS     15       POT      POT      POT      1.000000       39.0983           0
     36866 IONS     16       POT      POT      POT      1.000000       39.0983           0
     36867 IONS     17       POT      POT      POT      1.000000       39.0983           0
     36868 IONS     18       POT      POT      POT      1.000000       39.0983           0
     36869 IONS     19       POT      POT      POT      1.000000       39.0983           0
     36870 IONS     20       POT      POT      POT      1.000000       39.0983           0
     36871 IONS     21       POT      POT      POT      1.000000       39.0983           0
     36872 IONS     22       POT      POT      POT      1.000000       39.0983           0
     36873 IONS     23       POT      POT      POT      1.000000       39.0983           0
     36874 IONS     24       POT      POT      POT      1.000000       39.0983           0
     36875 IONS     25       POT      POT      POT      1.000000       39.0983           0
     36876 IONS     26       POT      POT      POT      1.000000       39.0983           0
     36877 IONS     27       POT      POT      POT      1.000000       39.0983           0
     36878 IONS     28       POT      POT      POT      1.000000       39.0983           0
     36879 IONS     29       POT      POT      POT      1.000000       39.0983           0
     36880 IONS     30       POT      POT      POT      1.000000       39.0983           0
     36881 IONS     31       POT      POT      POT      1.000000       39.0983           0
     36882 IONS     32       POT      POT      POT      1.000000       39.0983           0
     36883 IONS     33       POT      POT      POT      1.000000       39.0983           0
     36884 IONS     34       POT      POT      POT      1.000000       39.0983           0
     36885 IONS     35       POT      POT      POT      1.000000       39.0983           0
     36886 IONS     36       POT      POT      POT      1.000000       39.0983           0
     36887 IONS     37       POT      POT      POT      1.000000       39.0983           0
     36888 IONS     38       POT      POT      POT      1.000000       39.0983           0
     36889 IONS     39       POT      POT      POT      1.000000       39.0983           0
     36890 IONS     40       CLA      CLA      CLA     -1.000000       35.4500           0
     36891 IONS     41       CLA      CLA      CLA     -1.000000       35.4500           0
     36892 IONS     42       CLA      CLA      CLA     -1.000000       35.4500           0
     36893 IONS     43       CLA      CLA      CLA     -1.000000       35.4500           0
     36894 IONS     44       CLA      CLA      CLA     -1.000000       35.4500           0
     36895 IONS     45       CLA      CLA      CLA     -1.000000       35.4500           0
     36896 IONS     46       CLA      CLA      CLA     -1.000000       35.4500           0
     36897 IONS     47       CLA      CLA      CLA     -1.000000       35.4500           0
     36898 IONS     48       CLA      CLA      CLA     -1.000000       35.4500           0
     36899 IONS     49       CLA      CLA      CLA     -1.000000       35.4500           0
     36900 IONS     50       CLA      CLA      CLA     -1.000000       35.4500           0
     36901 IONS     51       CLA      CLA      CLA     -1.000000       35.4500           0
     36902 IONS     52       CLA      CLA      CLA     -1.000000       35.4500           0
     36903 IONS     53       CLA      CLA      CLA     -1.000000       35.4500           0

     36716 !NBOND: bonds
         2         1         3         1         4         1         7         5
        10         7        12        10         1         5        15         5
         5         6         7         8         7         9        12        13
        12        14        10        11        15        17        15        16
        19        18        20        18        21        18        24        22
        27        24        29        27        18        22        32        22
        22        23        24        25        24        26        29        30
        29        31        27        28        32        34        32        33
        36        35        37        35        38        35        41        39
        44        41        47        44        50        47        52        50
        56        52        35        39        59        39        39        40
        41        42        41        43        44        45        44        46
        47        48        47        49        50        51        53        54
        53        55        56        57        56        58        52        53
        59        61        59        60        63        62        64        62
        76        68        62        68        68        70        70        73
        73        65        62        65        69        68        74        73
        75        73        66        65        67        65        71        70
        72        70        76        78        76        77        80        79
        81        79        82        79        85        83        88        85
        90        88        79        83        93        83        83        84
        85        86        85        87        90        91        90        92
        88        89        93        95        93        94        97        96
        98        96       110       102        96       102       102       104
       104       107       107        99        96        99       103       102
       108       107       109       107       100        99       101        99
       105       104       106       104       110       112       110       111
       113       117       113       121       113       125       117       118
       117       119       117       120       121       122       121       123
       121       124       125       126       125       127       125       128
       113       114       114       115       114       116       114       129
       129       130       129       131       129       135       136       137
       135       132       132       136       132       133       132       134
       137       138       137       139       137       140       140       141
       140       148       140       142       148       149       148       150
       148       151       142       143       143       145       143       144
       145       146       145       147       145       157       157       158
       157       159       157       160       160       161       160       162
       160       163       163       164       163       165       163       166
       166       167       166       168       166       169       169       170
       169       171       169       172       172       173       172       174
       172       175       175       176       175       177       177       178
       177       179       179       180       179       181       179       182
       182       183       182       184       182       185       185       186
       185       187       185       188       188       189       188       190
       188       191       191       192       191       193       191       194
       194       195       194       196       194       197       197       198
       197       199       197       200       200       201       200       202
       200       203       151       152       152       154       152       153
       154       155       154       156       154       204       204       205
       204       206       204       207       207       208       207       209
       207       210       210       211       210       212       210       213
       213       214       213       215       213       216       216       217
       216       218       216       219       219       220       219       221
       219       222       222       223       222       224       222       225
       225       226       225       227       225       228       228       229
       228       230       228       231       231       232       231       233
       231       234       234       235       234       236       234       237
       237       238       237       239       237       240       240       241
       240       242       240       243       243       244       243       245
       243       246       247       248       247       249       247       250
       247       251       255       253       253       251       253       254
       251       252       251       256       264       263       256       257
       256       258       256       262       262       259       259       263
       259       260       259       261       264       265       264       266
       264       267       267       268       267       275       267       269
       275       276       275       277       275       278       269       270
       270       272       270       271       272       273       272       274
       272       284       284       285       284       286       284       287
       287       288       287       289       287       290       290       291
       290       292       290       293       293       294       293       295
       293       296       296       297       296       298       296       299
       299       300       299       301       299       302       302       303
       302       304       304       305       304       306       306       307
       306       308       306       309       309       310       309       311
       309       312       312       313       312       314       312       315
       315       316       315       317       315       318       318       319
       318       320       318       321       321       322       321       323
       321       324       324       325       324       326       324       327
       327       328       327       329       327       330       278       279
       279       281       279       280       281       282       281       283
       281       331       331       332       331       333       331       334
       334       335       334       336       334       337       337       338
       337       339       337       340       340       341       340       342
       340       343       343       344       343       345       343       346
       346       347       346       348       346       349       349       350
       349       351       349       352       352       353       352       354
       352       355       355       356       355       357       355       358
       358       359       358       360       358       361       361       362
       361       363       361       364       364       365       364       366
       364       367       367       368       367       369       367       370
       370       371       370       372       370       373       374       375
       374       376       374       377       374       378       382       380
       380       378       380       381       378       379       378       383
       391       390       383       384       383       385       383       389
       389       386       386       390       386       387       386       388
       391       392       391       393       391       394       394       395
       394       402       394       396       402       403       402       404
       402       405       396       397       397       399       397       398
       399       400       399       401       399       411       411       412
       411       413       411       414       414       415       414       416
       414       417       417       418       417       419       417       420
       420       421       420       422       420       423       423       424
       423       425       423       426       426       427       426       428
       426       429       429       430       429       431       431       432
       431       433       433       434       433       435       433       436
       436       437       436       438       436       439       439       440
       439       441       439       442       442       443       442       444
       442       445       445       446       445       447       445       448
       448       449       448       450       448       451       451       452
       451       453       451       454       454       455       454       456
       454       457       405       406       406       408       406       407
       408       409       408       410       408       458       458       459
       458       460       458       461       461       462       461       463
       461       464       464       465       464       466       464       467
       467       468       467       469       467       470       470       471
       470       472       470       473       473       474       473       475
       473       476       476       477       476       478       476       479
       479       480       479       481       479       482       482       483
       482       484       482       485       485       486       485       487
       485       488       488       489       488       490       488       491
       491       492       491       493       491       494       494       495
       494       496       494       497       497       498       497       499
       497       500       501       505       501       509       501       513
       505       506       505       507       505       508       509       510
       509       511       509       512       513       514       513       515
       513       516       501       502       502       503       502       504
       502       517       517       518       517       519       517       523
       524       525       523       520       520       524       520       521
       520       522       525       526       525       527       525       528
       528       529       528       536       528       530       536       537
       536       538       536       539       530       531       531       533
       531       532       533       534       533       535       533       545
       545       546       545       547       545       548       548       549
       548       550       548       551       551       552       551       553
       551       554       554       555       554       556       554       557
       557       558       557       559       557       560       560       561
       560       562       560       563       563       564       563       565
       565       566       565       567       567       568       567       569
       567       570       570       571       570       572       570       573
       573       574       573       575       573       576       576       577
       576       578       576       579       579       580       579       581
       579       582       582       583       582       584       582       585
       585       586       585       587       585       588       588       589
       588       590       588       591       539       540       540       542
       540       541       542       543       542       544       542       592
       592       593       592       594       592       595       595       596
       595       597       595       598       598       599       598       600
       598       601       601       602       601       603       601       604
       604       605       604       606       604       607       607       608
       607       609       607       610       610       611       610       612
       610       613       613       614       613       615       613       616
       616       617       616       618       616       619       619       620
       619       621       619       622       622       623       622       624
       622       625       625       626       625       627       625       628
       628       629       628       630       628       631       631       632
       631       633       631       634       635       639       635       643
       635       647       639       640       639       641       639       642
       643       644       643       645       643       646       647       648
       647       649       647       650       635       636       636       637
       636       638       636       651       651       652       651       653
       651       657       658       659       657       654       654       658
       654       655       654       656       659       660       659       661
       659       662       662       663       662       670       662       664
       670       671       670       672       670       673       664       665
       665       667       665       666       667       668       667       669
       667       679       679       680       679       681       679       682
       682       683       682       684       682       685       685       686
       685       687       685       688       688       689       688       690
       688       691       691       692       691       693       691       694
       694       695       694       696       694       697       697       698
       697       699       699       700       699       701       701       702
       701       703       701       704       704       705       704       706
       704       707       707       708       707       709       707       710
       710       711       710       712       710       713       713       714
       713       715       713       716       716       717       716       718
       716       719       719       720       719       721       719       722
       722       723       722       724       722       725       673       674
       674       676       674       675       676       677       676       678
       676       726       726       727       726       728       726       729
       729       730       729       731       729       732       732       733
       732       734       732       735       735       736       735       737
       735       738       738       739       738       740       738       741
       741       742       741       743       741       744       744       745
       744       746       744       747       747       748       747       749
       747       750       750       751       750       752       750       753
       753       754       753       755       753       756       756       757
       756       758       756       759       759       760       759       761
       759       762       762       763       762       764       762       765
       765       766       765       767       765       768       769       773
       769       777       769       781       773       774       773       775
       773       776       777       778       777       779       777       780
       781       782       781       783       781       784       769       770
       770       771       770       772       770       785       785       786
       785       787       785       791       792       793       791       788
       788       792       788       789       788       790       793       794
       793       795       793       796       796       797       796       804
       796       798       804       805       804       806       804       807
       798       799       799       801       799       800       801       802
       801       803       801       813       813       814       813       815
       813       816       816       817       816       818       816       819
       819       820       819       821       819       822       822       823
       822       824       822       825       825       826       825       827
       825       828       828       829       828       830       828       831
       831       832       831       833       833       834       833       835
       835       836       835       837       835       838       838       839
       838       840       838       841       841       842       841       843
       841       844       844       845       844       846       844       847
       847       848       847       849       847       850       850       851
       850       852       850       853       853       854       853       855
       853       856       856       857       856       858       856       859
       807       808       808       810       808       809       810       811
       810       812       810       860       860       861       860       862
       860       863       863       864       863       865       863       866
       866       867       866       868       866       869       869       870
       869       871       869       872       872       873       872       874
       872       875       875       876       875       877       875       878
       878       879       878       880       878       881       881       882
       881       883       881       884       884       885       884       886
       884       887       887       888       887       889       887       890
       890       891       890       892       890       893       893       894
       893       895       893       896       896       897       896       898
       896       899       899       900       899       901       899       902
       903       904       903       905       903       906       903       907
       911       909       909       907       909       910       907       908
       907       912       920       919       912       913       912       914
       912       918       918       915       915       919       915       916
       915       917       920       921       920       922       920       923
       923       924       923       931       923       925       931       932
       931       933       931       934       925       926       926       928
       926       927       928       929       928       930       928       940
       940       941       940       942       940       943       943       944
       943       945       943       946       946       947       946       948
       946       949       949       950       949       951       949       952
       952       953       952       954       952       955       955       956
       955       957       955       958       958       959       958       960
       960       961       960       962       962       963       962       964
       962       965       965       966       965       967       965       968
       968       969       968       970       968       971       971       972
       971       973       971       974       974       975       974       976
       974       977       977       978       977       979       977       980
       980       981       980       982       980       983       983       984
       983       985       983       986       934       935       935       937
       935       936       937       938       937       939       937       987
       987       988       987       989       987       990       990       991
       990       992       990       993       993       994       993       995
       993       996       996       997       996       998       996       999
       999      1000       999      1001       999      1002      1002      1003
      1002      1004      1002      1005      1005      1006      1005      1007
      1005      1008      1008      1009      1008      1010      1008      1011
      1011      1012      1011      1013      1011      1014      1014      1015
      1014      1016      1014      1017      1017      1018      1017      1019
      1017      1020      1020      1021      1020      1022      1020      1023
      1023      1024      1023      1025      1023      1026      1026      1027
      1026      1028      1026      1029      1030      1034      1030      1038
      1030      1042      1034      1035      1034      1036      1034      1037
      1038      1039      1038      1040      1038      1041      1042      1043
      1042      1044      1042      1045      1030      1031      1031      1032
      1031      1033      1031      1046      1046      1047      1046      1048
      1046      1052      1053      1054      1052      1049      1049      1053
      1049      1050      1049      1051      1054      1055      1054      1056
      1054      1057      1057      1058      1057      1065      1057      1059
      1065      1066      1065      1067      1065      1068      1059      1060
      1060      1062      1060      1061      1062      1063      1062      1064
      1062      1074      1074      1075      1074      1076      1074      1077
      1077      1078      1077      1079      1077      1080      1080      1081
      1080      1082      1080      1083      1083      1084      1083      1085
      1083      1086      1086      1087      1086      1088      1086      1089
      1089      1090      1089      1091      1089      1092      1092      1093
      1092      1094      1094      1095      1094      1096      1096      1097
      1096      1098      1096      1099      1099      1100      1099      1101
      1099      1102      1102      1103      1102      1104      1102      1105
      1105      1106      1105      1107      1105      1108      1108      1109
      1108      1110      1108      1111      1111      1112      1111      1113
      1111      1114      1114      1115      1114      1116      1114      1117
      1117      1118      1117      1119      1117      1120      1068      1069
      1069      1071      1069      1070      1071      1072      1071      1073
      1071      1121      1121      1122      1121      1123      1121      1124
      1124      1125      1124      1126      1124      1127      1127      1128
      1127      1129      1127      1130      1130      1131      1130      1132
      1130      1133      1133      1134      1133      1135      1133      1136
      1136      1137      1136      1138      1136      1139      1139      1140
      1139      1141      1139      1142      1142      1143      1142      1144
      1142      1145      1145      1146      1145      1147      1145      1148
      1148      1149      1148      1150      1148      1151      1151      1152
      1151      1153      1151      1154      1154      1155      1154      1156
      1154      1157      1157      1158      1157      1159      1157      1160
      1160      1161      1160      1162      1160      1163      1164      1168
      1164      1172      1164      1176      1168      1169      1168      1170
      1168      1171      1172      1173      1172      1174      1172      1175
      1176      1177      1176      1178      1176      1179      1164      1165
      1165      1166      1165      1167      1165      1180      1180      1181
      1180      1182      1180      1186      1187      1188      1186      1183
      1183      1187      1183      1184      1183      1185      1188      1189
      1188      1190      1188      1191      1191      1192      1191      1199
      1191      1193      1199      1200      1199      1201      1199      1202
      1193      1194      1194      1196      1194      1195      1196      1197
      1196      1198      1196      1208      1208      1209      1208      1210
      1208      1211      1211      1212      1211      1213      1211      1214
      1214      1215      1214      1216      1214      1217      1217      1218
      1217      1219      1217      1220      1220      1221      1220      1222
      1220      1223      1223      1224      1223      1225      1223      1226
      1226      1227      1226      1228      1228      1229      1228      1230
      1230      1231      1230      1232      1230      1233      1233      1234
      1233      1235      1233      1236      1236      1237      1236      1238
      1236      1239      1239      1240      1239      1241      1239      1242
      1242      1243      1242      1244      1242      1245      1245      1246
      1245      1247      1245      1248      1248      1249      1248      1250
      1248      1251      1251      1252      1251      1253      1251      1254
      1202      1203      1203      1205      1203      1204      1205      1206
      1205      1207      1205      1255      1255      1256      1255      1257
      1255      1258      1258      1259      1258      1260      1258      1261
      1261      1262      1261      1263      1261      1264      1264      1265
      1264      1266      1264      1267      1267      1268      1267      1269
      1267      1270      1270      1271      1270      1272      1270      1273
      1273      1274      1273      1275      1273      1276      1276      1277
      1276      1278      1276      1279      1279      1280      1279      1281
      1279      1282      1282      1283      1282      1284      1282      1285
      1285      1286      1285      1287      1285      1288      1288      1289
      1288      1290      1288      1291      1291      1292      1291      1293
      1291      1294      1294      1295      1294      1296      1294      1297
      1298      1302      1298      1306      1298      1310      1302      1303
      1302      1304      1302      1305      1306      1307      1306      1308
      1306      1309      1310      1311      1310      1312      1310      1313
      1298      1299      1299      1300      1299      1301      1299      1314
      1314      1315      1314      1316      1314      1320      1321      1322
      1320      1317      1317      1321      1317      1318      1317      1319
      1322      1323      1322      1324      1322      1325      1325      1326
      1325      1333      1325      1327      1333      1334      1333      1335
      1333      1336      1327      1328      1328      1330      1328      1329
      1330      1331      1330      1332      1330      1342      1342      1343
      1342      1344      1342      1345      1345      1346      1345      1347
      1345      1348      1348      1349      1348      1350      1348      1351
      1351      1352      1351      1353      1351      1354      1354      1355
      1354      1356      1354      1357      1357      1358      1357      1359
      1357      1360      1360      1361      1360      1362      1362      1363
      1362      1364      1364      1365      1364      1366      1364      1367
      1367      1368      1367      1369      1367      1370      1370      1371
      1370      1372      1370      1373      1373      1374      1373      1375
      1373      1376      1376      1377      1376      1378      1376      1379
      1379      1380      1379      1381      1379      1382      1382      1383
      1382      1384      1382      1385      1385      1386      1385      1387
      1385      1388      1336      1337      1337      1339      1337      1338
      1339      1340      1339      1341      1339      1389      1389      1390
      1389      1391      1389      1392      1392      1393      1392      1394
      1392      1395      1395      1396      1395      1397      1395      1398
      1398      1399      1398      1400      1398      1401      1401      1402
      1401      1403      1401      1404      1404      1405      1404      1406
      1404      1407      1407      1408      1407      1409      1407      1410
      1410      1411      1410      1412      1410      1413      1413      1414
      1413      1415      1413      1416      1416      1417      1416      1418
      1416      1419      1419      1420      1419      1421      1419      1422
      1422      1423      1422      1424      1422      1425      1425      1426
      1425      1427      1425      1428      1428      1429      1428      1430
      1428      1431      1432      1436      1432      1440      1432      1444
      1436      1437      1436      1438      1436      1439      1440      1441
      1440      1442      1440      1443      1444      1445      1444      1446
      1444      1447      1432      1433      1433      1434      1433      1435
      1433      1448      1448      1449      1448      1450      1448      1454
      1455      1456      1454      1451      1451      1455      1451      1452
      1451      1453      1456      1457      1456      1458      1456      1459
      1459      1460      1459      1467      1459      1461      1467      1468
      1467      1469      1467      1470      1461      1462      1462      1464
      1462      1463      1464      1465      1464      1466      1464      1476
      1476      1477      1476      1478      1476      1479      1479      1480
      1479      1481      1479      1482      1482      1483      1482      1484
      1482      1485      1485      1486      1485      1487      1485      1488
      1488      1489      1488      1490      1488      1491      1491      1492
      1491      1493      1491      1494      1494      1495      1494      1496
      1496      1497      1496      1498      1498      1499      1498      1500
      1498      1501      1501      1502      1501      1503      1501      1504
      1504      1505      1504      1506      1504      1507      1507      1508
      1507      1509      1507      1510      1510      1511      1510      1512
      1510      1513      1513      1514      1513      1515      1513      1516
      1516      1517      1516      1518      1516      1519      1519      1520
      1519      1521      1519      1522      1470      1471      1471      1473
      1471      1472      1473      1474      1473      1475      1473      1523
      1523      1524      1523      1525      1523      1526      1526      1527
      1526      1528      1526      1529      1529      1530      1529      1531
      1529      1532      1532      1533      1532      1534      1532      1535
      1535      1536      1535      1537      1535      1538      1538      1539
      1538      1540      1538      1541      1541      1542      1541      1543
      1541      1544      1544      1545      1544      1546      1544      1547
      1547      1548      1547      1549      1547      1550      1550      1551
      1550      1552      1550      1553      1553      1554      1553      1555
      1553      1556      1556      1557      1556      1558      1556      1559
      1559      1560      1559      1561      1559      1562      1562      1563
      1562      1564      1562      1565      1566      1570      1566      1574
      1566      1578      1570      1571      1570      1572      1570      1573
      1574      1575      1574      1576      1574      1577      1578      1579
      1578      1580      1578      1581      1566      1567      1567      1568
      1567      1569      1567      1582      1582      1583      1582      1584
      1582      1588      1589      1590      1588      1585      1585      1589
      1585      1586      1585      1587      1590      1591      1590      1592
      1590      1593      1593      1594      1593      1601      1593      1595
      1601      1602      1601      1603      1601      1604      1595      1596
      1596      1598      1596      1597      1598      1599      1598      1600
      1598      1610      1610      1611      1610      1612      1610      1613
      1613      1614      1613      1615      1613      1616      1616      1617
      1616      1618      1616      1619      1619      1620      1619      1621
      1619      1622      1622      1623      1622      1624      1622      1625
      1625      1626      1625      1627      1625      1628      1628      1629
      1628      1630      1630      1631      1630      1632      1632      1633
      1632      1634      1632      1635      1635      1636      1635      1637
      1635      1638      1638      1639      1638      1640      1638      1641
      1641      1642      1641      1643      1641      1644      1644      1645
      1644      1646      1644      1647      1647      1648      1647      1649
      1647      1650      1650      1651      1650      1652      1650      1653
      1653      1654      1653      1655      1653      1656      1604      1605
      1605      1607      1605      1606      1607      1608      1607      1609
      1607      1657      1657      1658      1657      1659      1657      1660
      1660      1661      1660      1662      1660      1663      1663      1664
      1663      1665      1663      1666      1666      1667      1666      1668
      1666      1669      1669      1670      1669      1671      1669      1672
      1672      1673      1672      1674      1672      1675      1675      1676
      1675      1677      1675      1678      1678      1679      1678      1680
      1678      1681      1681      1682      1681      1683      1681      1684
      1684      1685      1684      1686      1684      1687      1687      1688
      1687      1689      1687      1690      1690      1691      1690      1692
      1690      1693      1693      1694      1693      1695      1693      1696
      1696      1697      1696      1698      1696      1699      1700      1701
      1700      1702      1700      1703      1700      1704      1708      1706
      1706      1704      1706      1707      1704      1705      1704      1709
      1717      1716      1709      1710      1709      1711      1709      1715
      1715      1712      1712      1716      1712      1713      1712      1714
      1717      1718      1717      1719      1717      1720      1720      1721
      1720      1728      1720      1722      1728      1729      1728      1730
      1728      1731      1722      1723      1723      1725      1723      1724
      1725      1726      1725      1727      1725      1737      1737      1738
      1737      1739      1737      1740      1740      1741      1740      1742
      1740      1743      1743      1744      1743      1745      1743      1746
      1746      1747      1746      1748      1746      1749      1749      1750
      1749      1751      1749      1752      1752      1753      1752      1754
      1752      1755      1755      1756      1755      1757      1757      1758
      1757      1759      1759      1760      1759      1761      1759      1762
      1762      1763      1762      1764      1762      1765      1765      1766
      1765      1767      1765      1768      1768      1769      1768      1770
      1768      1771      1771      1772      1771      1773      1771      1774
      1774      1775      1774      1776      1774      1777      1777      1778
      1777      1779      1777      1780      1780      1781      1780      1782
      1780      1783      1731      1732      1732      1734      1732      1733
      1734      1735      1734      1736      1734      1784      1784      1785
      1784      1786      1784      1787      1787      1788      1787      1789
      1787      1790      1790      1791      1790      1792      1790      1793
      1793      1794      1793      1795      1793      1796      1796      1797
      1796      1798      1796      1799      1799      1800      1799      1801
      1799      1802      1802      1803      1802      1804      1802      1805
      1805      1806      1805      1807      1805      1808      1808      1809
      1808      1810      1808      1811      1811      1812      1811      1813
      1811      1814      1814      1815      1814      1816      1814      1817
      1817      1818      1817      1819      1817      1820      1820      1821
      1820      1822      1820      1823      1823      1824      1823      1825
      1823      1826      1827      1831      1827      1835      1827      1839
      1831      1832      1831      1833      1831      1834      1835      1836
      1835      1837      1835      1838      1839      1840      1839      1841
      1839      1842      1827      1828      1828      1829      1828      1830
      1828      1843      1843      1844      1843      1845      1843      1849
      1850      1851      1849      1846      1846      1850      1846      1847
      1846      1848      1851      1852      1851      1853      1851      1854
      1854      1855      1854      1862      1854      1856      1862      1863
      1862      1864      1862      1865      1856      1857      1857      1859
      1857      1858      1859      1860      1859      1861      1859      1871
      1871      1872      1871      1873      1871      1874      1874      1875
      1874      1876      1874      1877      1877      1878      1877      1879
      1877      1880      1880      1881      1880      1882      1880      1883
      1883      1884      1883      1885      1883      1886      1886      1887
      1886      1888      1886      1889      1889      1890      1889      1891
      1891      1892      1891      1893      1893      1894      1893      1895
      1893      1896      1896      1897      1896      1898      1896      1899
      1899      1900      1899      1901      1899      1902      1902      1903
      1902      1904      1902      1905      1905      1906      1905      1907
      1905      1908      1908      1909      1908      1910      1908      1911
      1911      1912      1911      1913      1911      1914      1914      1915
      1914      1916      1914      1917      1865      1866      1866      1868
      1866      1867      1868      1869      1868      1870      1868      1918
      1918      1919      1918      1920      1918      1921      1921      1922
      1921      1923      1921      1924      1924      1925      1924      1926
      1924      1927      1927      1928      1927      1929      1927      1930
      1930      1931      1930      1932      1930      1933      1933      1934
      1933      1935      1933      1936      1936      1937      1936      1938
      1936      1939      1939      1940      1939      1941      1939      1942
      1942      1943      1942      1944      1942      1945      1945      1946
      1945      1947      1945      1948      1948      1949      1948      1950
      1948      1951      1951      1952      1951      1953      1951      1954
      1954      1955      1954      1956      1954      1957      1957      1958
      1957      1959      1957      1960      1961      1965      1961      1969
      1961      1973      1965      1966      1965      1967      1965      1968
      1969      1970      1969      1971      1969      1972      1973      1974
      1973      1975      1973      1976      1961      1962      1962      1963
      1962      1964      1962      1977      1977      1978      1977      1979
      1977      1983      1984      1985      1983      1980      1980      1984
      1980      1981      1980      1982      1985      1986      1985      1987
      1985      1988      1988      1989      1988      1996      1988      1990
      1996      1997      1996      1998      1996      1999      1990      1991
      1991      1993      1991      1992      1993      1994      1993      1995
      1993      2005      2005      2006      2005      2007      2005      2008
      2008      2009      2008      2010      2008      2011      2011      2012
      2011      2013      2011      2014      2014      2015      2014      2016
      2014      2017      2017      2018      2017      2019      2017      2020
      2020      2021      2020      2022      2020      2023      2023      2024
      2023      2025      2025      2026      2025      2027      2027      2028
      2027      2029      2027      2030      2030      2031      2030      2032
      2030      2033      2033      2034      2033      2035      2033      2036
      2036      2037      2036      2038      2036      2039      2039      2040
      2039      2041      2039      2042      2042      2043      2042      2044
      2042      2045      2045      2046      2045      2047      2045      2048
      2048      2049      2048      2050      2048      2051      1999      2000
      2000      2002      2000      2001      2002      2003      2002      2004
      2002      2052      2052      2053      2052      2054      2052      2055
      2055      2056      2055      2057      2055      2058      2058      2059
      2058      2060      2058      2061      2061      2062      2061      2063
      2061      2064      2064      2065      2064      2066      2064      2067
      2067      2068      2067      2069      2067      2070      2070      2071
      2070      2072      2070      2073      2073      2074      2073      2075
      2073      2076      2076      2077      2076      2078      2076      2079
      2079      2080      2079      2081      2079      2082      2082      2083
      2082      2084      2082      2085      2085      2086      2085      2087
      2085      2088      2088      2089      2088      2090      2088      2091
      2091      2092      2091      2093      2091      2094      2095      2099
      2095      2103      2095      2107      2099      2100      2099      2101
      2099      2102      2103      2104      2103      2105      2103      2106
      2107      2108      2107      2109      2107      2110      2095      2096
      2096      2097      2096      2098      2096      2111      2111      2112
      2111      2113      2111      2117      2118      2119      2117      2114
      2114      2118      2114      2115      2114      2116      2119      2120
      2119      2121      2119      2122      2122      2123      2122      2130
      2122      2124      2130      2131      2130      2132      2130      2133
      2124      2125      2125      2127      2125      2126      2127      2128
      2127      2129      2127      2139      2139      2140      2139      2141
      2139      2142      2142      2143      2142      2144      2142      2145
      2145      2146      2145      2147      2145      2148      2148      2149
      2148      2150      2148      2151      2151      2152      2151      2153
      2151      2154      2154      2155      2154      2156      2154      2157
      2157      2158      2157      2159      2159      2160      2159      2161
      2161      2162      2161      2163      2161      2164      2164      2165
      2164      2166      2164      2167      2167      2168      2167      2169
      2167      2170      2170      2171      2170      2172      2170      2173
      2173      2174      2173      2175      2173      2176      2176      2177
      2176      2178      2176      2179      2179      2180      2179      2181
      2179      2182      2182      2183      2182      2184      2182      2185
      2133      2134      2134      2136      2134      2135      2136      2137
      2136      2138      2136      2186      2186      2187      2186      2188
      2186      2189      2189      2190      2189      2191      2189      2192
      2192      2193      2192      2194      2192      2195      2195      2196
      2195      2197      2195      2198      2198      2199      2198      2200
      2198      2201      2201      2202      2201      2203      2201      2204
      2204      2205      2204      2206      2204      2207      2207      2208
      2207      2209      2207      2210      2210      2211      2210      2212
      2210      2213      2213      2214      2213      2215      2213      2216
      2216      2217      2216      2218      2216      2219      2219      2220
      2219      2221      2219      2222      2222      2223      2222      2224
      2222      2225      2225      2226      2225      2227      2225      2228
      2229      2233      2229      2237      2229      2241      2233      2234
      2233      2235      2233      2236      2237      2238      2237      2239
      2237      2240      2241      2242      2241      2243      2241      2244
      2229      2230      2230      2231      2230      2232      2230      2245
      2245      2246      2245      2247      2245      2251      2252      2253
      2251      2248      2248      2252      2248      2249      2248      2250
      2253      2254      2253      2255      2253      2256      2256      2257
      2256      2264      2256      2258      2264      2265      2264      2266
      2264      2267      2258      2259      2259      2261      2259      2260
      2261      2262      2261      2263      2261      2273      2273      2274
      2273      2275      2273      2276      2276      2277      2276      2278
      2276      2279      2279      2280      2279      2281      2279      2282
      2282      2283      2282      2284      2282      2285      2285      2286
      2285      2287      2285      2288      2288      2289      2288      2290
      2288      2291      2291      2292      2291      2293      2293      2294
      2293      2295      2295      2296      2295      2297      2295      2298
      2298      2299      2298      2300      2298      2301      2301      2302
      2301      2303      2301      2304      2304      2305      2304      2306
      2304      2307      2307      2308      2307      2309      2307      2310
      2310      2311      2310      2312      2310      2313      2313      2314
      2313      2315      2313      2316      2316      2317      2316      2318
      2316      2319      2267      2268      2268      2270      2268      2269
      2270      2271      2270      2272      2270      2320      2320      2321
      2320      2322      2320      2323      2323      2324      2323      2325
      2323      2326      2326      2327      2326      2328      2326      2329
      2329      2330      2329      2331      2329      2332      2332      2333
      2332      2334      2332      2335      2335      2336      2335      2337
      2335      2338      2338      2339      2338      2340      2338      2341
      2341      2342      2341      2343      2341      2344      2344      2345
      2344      2346      2344      2347      2347      2348      2347      2349
      2347      2350      2350      2351      2350      2352      2350      2353
      2353      2354      2353      2355      2353      2356      2356      2357
      2356      2358      2356      2359      2359      2360      2359      2361
      2359      2362      2363      2367      2363      2371      2363      2375
      2367      2368      2367      2369      2367      2370      2371      2372
      2371      2373      2371      2374      2375      2376      2375      2377
      2375      2378      2363      2364      2364      2365      2364      2366
      2364      2379      2379      2380      2379      2381      2379      2385
      2386      2387      2385      2382      2382      2386      2382      2383
      2382      2384      2387      2388      2387      2389      2387      2390
      2390      2391      2390      2398      2390      2392      2398      2399
      2398      2400      2398      2401      2392      2393      2393      2395
      2393      2394      2395      2396      2395      2397      2395      2407
      2407      2408      2407      2409      2407      2410      2410      2411
      2410      2412      2410      2413      2413      2414      2413      2415
      2413      2416      2416      2417      2416      2418      2416      2419
      2419      2420      2419      2421      2419      2422      2422      2423
      2422      2424      2422      2425      2425      2426      2425      2427
      2427      2428      2427      2429      2429      2430      2429      2431
      2429      2432      2432      2433      2432      2434      2432      2435
      2435      2436      2435      2437      2435      2438      2438      2439
      2438      2440      2438      2441      2441      2442      2441      2443
      2441      2444      2444      2445      2444      2446      2444      2447
      2447      2448      2447      2449      2447      2450      2450      2451
      2450      2452      2450      2453      2401      2402      2402      2404
      2402      2403      2404      2405      2404      2406      2404      2454
      2454      2455      2454      2456      2454      2457      2457      2458
      2457      2459      2457      2460      2460      2461      2460      2462
      2460      2463      2463      2464      2463      2465      2463      2466
      2466      2467      2466      2468      2466      2469      2469      2470
      2469      2471      2469      2472      2472      2473      2472      2474
      2472      2475      2475      2476      2475      2477      2475      2478
      2478      2479      2478      2480      2478      2481      2481      2482
      2481      2483      2481      2484      2484      2485      2484      2486
      2484      2487      2487      2488      2487      2489      2487      2490
      2490      2491      2490      2492      2490      2493      2493      2494
      2493      2495      2493      2496      2497      2501      2497      2505
      2497      2509      2501      2502      2501      2503      2501      2504
      2505      2506      2505      2507      2505      2508      2509      2510
      2509      2511      2509      2512      2497      2498      2498      2499
      2498      2500      2498      2513      2513      2514      2513      2515
      2513      2519      2520      2521      2519      2516      2516      2520
      2516      2517      2516      2518      2521      2522      2521      2523
      2521      2524      2524      2525      2524      2532      2524      2526
      2532      2533      2532      2534      2532      2535      2526      2527
      2527      2529      2527      2528      2529      2530      2529      2531
      2529      2541      2541      2542      2541      2543      2541      2544
      2544      2545      2544      2546      2544      2547      2547      2548
      2547      2549      2547      2550      2550      2551      2550      2552
      2550      2553      2553      2554      2553      2555      2553      2556
      2556      2557      2556      2558      2556      2559      2559      2560
      2559      2561      2561      2562      2561      2563      2563      2564
      2563      2565      2563      2566      2566      2567      2566      2568
      2566      2569      2569      2570      2569      2571      2569      2572
      2572      2573      2572      2574      2572      2575      2575      2576
      2575      2577      2575      2578      2578      2579      2578      2580
      2578      2581      2581      2582      2581      2583      2581      2584
      2584      2585      2584      2586      2584      2587      2535      2536
      2536      2538      2536      2537      2538      2539      2538      2540
      2538      2588      2588      2589      2588      2590      2588      2591
      2591      2592      2591      2593      2591      2594      2594      2595
      2594      2596      2594      2597      2597      2598      2597      2599
      2597      2600      2600      2601      2600      2602      2600      2603
      2603      2604      2603      2605      2603      2606      2606      2607
      2606      2608      2606      2609      2609      2610      2609      2611
      2609      2612      2612      2613      2612      2614      2612      2615
      2615      2616      2615      2617      2615      2618      2618      2619
      2618      2620      2618      2621      2621      2622      2621      2623
      2621      2624      2624      2625      2624      2626      2624      2627
      2627      2628      2627      2629      2627      2630      2631      2635
      2631      2639      2631      2643      2635      2636      2635      2637
      2635      2638      2639      2640      2639      2641      2639      2642
      2643      2644      2643      2645      2643      2646      2631      2632
      2632      2633      2632      2634      2632      2647      2647      2648
      2647      2649      2647      2653      2654      2655      2653      2650
      2650      2654      2650      2651      2650      2652      2655      2656
      2655      2657      2655      2658      2658      2659      2658      2666
      2658      2660      2666      2667      2666      2668      2666      2669
      2660      2661      2661      2663      2661      2662      2663      2664
      2663      2665      2663      2675      2675      2676      2675      2677
      2675      2678      2678      2679      2678      2680      2678      2681
      2681      2682      2681      2683      2681      2684      2684      2685
      2684      2686      2684      2687      2687      2688      2687      2689
      2687      2690      2690      2691      2690      2692      2690      2693
      2693      2694      2693      2695      2695      2696      2695      2697
      2697      2698      2697      2699      2697      2700      2700      2701
      2700      2702      2700      2703      2703      2704      2703      2705
      2703      2706      2706      2707      2706      2708      2706      2709
      2709      2710      2709      2711      2709      2712      2712      2713
      2712      2714      2712      2715      2715      2716      2715      2717
      2715      2718      2718      2719      2718      2720      2718      2721
      2669      2670      2670      2672      2670      2671      2672      2673
      2672      2674      2672      2722      2722      2723      2722      2724
      2722      2725      2725      2726      2725      2727      2725      2728
      2728      2729      2728      2730      2728      2731      2731      2732
      2731      2733      2731      2734      2734      2735      2734      2736
      2734      2737      2737      2738      2737      2739      2737      2740
      2740      2741      2740      2742      2740      2743      2743      2744
      2743      2745      2743      2746      2746      2747      2746      2748
      2746      2749      2749      2750      2749      2751      2749      2752
      2752      2753      2752      2754      2752      2755      2755      2756
      2755      2757      2755      2758      2758      2759      2758      2760
      2758      2761      2761      2762      2761      2763      2761      2764
      2765      2769      2765      2773      2765      2777      2769      2770
      2769      2771      2769      2772      2773      2774      2773      2775
      2773      2776      2777      2778      2777      2779      2777      2780
      2765      2766      2766      2767      2766      2768      2766      2781
      2781      2782      2781      2783      2781      2787      2788      2789
      2787      2784      2784      2788      2784      2785      2784      2786
      2789      2790      2789      2791      2789      2792      2792      2793
      2792      2800      2792      2794      2800      2801      2800      2802
      2800      2803      2794      2795      2795      2797      2795      2796
      2797      2798      2797      2799      2797      2809      2809      2810
      2809      2811      2809      2812      2812      2813      2812      2814
      2812      2815      2815      2816      2815      2817      2815      2818
      2818      2819      2818      2820      2818      2821      2821      2822
      2821      2823      2821      2824      2824      2825      2824      2826
      2824      2827      2827      2828      2827      2829      2829      2830
      2829      2831      2831      2832      2831      2833      2831      2834
      2834      2835      2834      2836      2834      2837      2837      2838
      2837      2839      2837      2840      2840      2841      2840      2842
      2840      2843      2843      2844      2843      2845      2843      2846
      2846      2847      2846      2848      2846      2849      2849      2850
      2849      2851      2849      2852      2852      2853      2852      2854
      2852      2855      2803      2804      2804      2806      2804      2805
      2806      2807      2806      2808      2806      2856      2856      2857
      2856      2858      2856      2859      2859      2860      2859      2861
      2859      2862      2862      2863      2862      2864      2862      2865
      2865      2866      2865      2867      2865      2868      2868      2869
      2868      2870      2868      2871      2871      2872      2871      2873
      2871      2874      2874      2875      2874      2876      2874      2877
      2877      2878      2877      2879      2877      2880      2880      2881
      2880      2882      2880      2883      2883      2884      2883      2885
      2883      2886      2886      2887      2886      2888      2886      2889
      2889      2890      2889      2891      2889      2892      2892      2893
      2892      2894      2892      2895      2895      2896      2895      2897
      2895      2898      2899      2903      2899      2907      2899      2911
      2903      2904      2903      2905      2903      2906      2907      2908
      2907      2909      2907      2910      2911      2912      2911      2913
      2911      2914      2899      2900      2900      2901      2900      2902
      2900      2915      2915      2916      2915      2917      2915      2921
      2922      2923      2921      2918      2918      2922      2918      2919
      2918      2920      2923      2924      2923      2925      2923      2926
      2926      2927      2926      2934      2926      2928      2934      2935
      2934      2936      2934      2937      2928      2929      2929      2931
      2929      2930      2931      2932      2931      2933      2931      2943
      2943      2944      2943      2945      2943      2946      2946      2947
      2946      2948      2946      2949      2949      2950      2949      2951
      2949      2952      2952      2953      2952      2954      2952      2955
      2955      2956      2955      2957      2955      2958      2958      2959
      2958      2960      2958      2961      2961      2962      2961      2963
      2963      2964      2963      2965      2965      2966      2965      2967
      2965      2968      2968      2969      2968      2970      2968      2971
      2971      2972      2971      2973      2971      2974      2974      2975
      2974      2976      2974      2977      2977      2978      2977      2979
      2977      2980      2980      2981      2980      2982      2980      2983
      2983      2984      2983      2985      2983      2986      2986      2987
      2986      2988      2986      2989      2937      2938      2938      2940
      2938      2939      2940      2941      2940      2942      2940      2990
      2990      2991      2990      2992      2990      2993      2993      2994
      2993      2995      2993      2996      2996      2997      2996      2998
      2996      2999      2999      3000      2999      3001      2999      3002
      3002      3003      3002      3004      3002      3005      3005      3006
      3005      3007      3005      3008      3008      3009      3008      3010
      3008      3011      3011      3012      3011      3013      3011      3014
      3014      3015      3014      3016      3014      3017      3017      3018
      3017      3019      3017      3020      3020      3021      3020      3022
      3020      3023      3023      3024      3023      3025      3023      3026
      3026      3027      3026      3028      3026      3029      3029      3030
      3029      3031      3029      3032      3033      3037      3033      3041
      3033      3045      3037      3038      3037      3039      3037      3040
      3041      3042      3041      3043      3041      3044      3045      3046
      3045      3047      3045      3048      3033      3034      3034      3035
      3034      3036      3034      3049      3049      3050      3049      3051
      3049      3055      3056      3057      3055      3052      3052      3056
      3052      3053      3052      3054      3057      3058      3057      3059
      3057      3060      3060      3061      3060      3068      3060      3062
      3068      3069      3068      3070      3068      3071      3062      3063
      3063      3065      3063      3064      3065      3066      3065      3067
      3065      3077      3077      3078      3077      3079      3077      3080
      3080      3081      3080      3082      3080      3083      3083      3084
      3083      3085      3083      3086      3086      3087      3086      3088
      3086      3089      3089      3090      3089      3091      3089      3092
      3092      3093      3092      3094      3092      3095      3095      3096
      3095      3097      3097      3098      3097      3099      3099      3100
      3099      3101      3099      3102      3102      3103      3102      3104
      3102      3105      3105      3106      3105      3107      3105      3108
      3108      3109      3108      3110      3108      3111      3111      3112
      3111      3113      3111      3114      3114      3115      3114      3116
      3114      3117      3117      3118      3117      3119      3117      3120
      3120      3121      3120      3122      3120      3123      3071      3072
      3072      3074      3072      3073      3074      3075      3074      3076
      3074      3124      3124      3125      3124      3126      3124      3127
      3127      3128      3127      3129      3127      3130      3130      3131
      3130      3132      3130      3133      3133      3134      3133      3135
      3133      3136      3136      3137      3136      3138      3136      3139
      3139      3140      3139      3141      3139      3142      3142      3143
      3142      3144      3142      3145      3145      3146      3145      3147
      3145      3148      3148      3149      3148      3150      3148      3151
      3151      3152      3151      3153      3151      3154      3154      3155
      3154      3156      3154      3157      3157      3158      3157      3159
      3157      3160      3160      3161      3160      3162      3160      3163
      3163      3164      3163      3165      3163      3166      3167      3171
      3167      3175      3167      3179      3171      3172      3171      3173
      3171      3174      3175      3176      3175      3177      3175      3178
      3179      3180      3179      3181      3179      3182      3167      3168
      3168      3169      3168      3170      3168      3183      3183      3184
      3183      3185      3183      3189      3190      3191      3189      3186
      3186      3190      3186      3187      3186      3188      3191      3192
      3191      3193      3191      3194      3194      3195      3194      3202
      3194      3196      3202      3203      3202      3204      3202      3205
      3196      3197      3197      3199      3197      3198      3199      3200
      3199      3201      3199      3211      3211      3212      3211      3213
      3211      3214      3214      3215      3214      3216      3214      3217
      3217      3218      3217      3219      3217      3220      3220      3221
      3220      3222      3220      3223      3223      3224      3223      3225
      3223      3226      3226      3227      3226      3228      3226      3229
      3229      3230      3229      3231      3231      3232      3231      3233
      3233      3234      3233      3235      3233      3236      3236      3237
      3236      3238      3236      3239      3239      3240      3239      3241
      3239      3242      3242      3243      3242      3244      3242      3245
      3245      3246      3245      3247      3245      3248      3248      3249
      3248      3250      3248      3251      3251      3252      3251      3253
      3251      3254      3254      3255      3254      3256      3254      3257
      3205      3206      3206      3208      3206      3207      3208      3209
      3208      3210      3208      3258      3258      3259      3258      3260
      3258      3261      3261      3262      3261      3263      3261      3264
      3264      3265      3264      3266      3264      3267      3267      3268
      3267      3269      3267      3270      3270      3271      3270      3272
      3270      3273      3273      3274      3273      3275      3273      3276
      3276      3277      3276      3278      3276      3279      3279      3280
      3279      3281      3279      3282      3282      3283      3282      3284
      3282      3285      3285      3286      3285      3287      3285      3288
      3288      3289      3288      3290      3288      3291      3291      3292
      3291      3293      3291      3294      3294      3295      3294      3296
      3294      3297      3297      3298      3297      3299      3297      3300
      3301      3302      3301      3303      3301      3304      3301      3305
      3309      3307      3307      3305      3307      3308      3305      3306
      3305      3310      3318      3317      3310      3311      3310      3312
      3310      3316      3316      3313      3313      3317      3313      3314
      3313      3315      3318      3319      3318      3320      3318      3321
      3321      3322      3321      3329      3321      3323      3329      3330
      3329      3331      3329      3332      3323      3324      3324      3326
      3324      3325      3326      3327      3326      3328      3326      3338
      3338      3339      3338      3340      3338      3341      3341      3342
      3341      3343      3341      3344      3344      3345      3344      3346
      3344      3347      3347      3348      3347      3349      3347      3350
      3350      3351      3350      3352      3350      3353      3353      3354
      3353      3355      3353      3356      3356      3357      3356      3358
      3358      3359      3358      3360      3360      3361      3360      3362
      3360      3363      3363      3364      3363      3365      3363      3366
      3366      3367      3366      3368      3366      3369      3369      3370
      3369      3371      3369      3372      3372      3373      3372      3374
      3372      3375      3375      3376      3375      3377      3375      3378
      3378      3379      3378      3380      3378      3381      3381      3382
      3381      3383      3381      3384      3332      3333      3333      3335
      3333      3334      3335      3336      3335      3337      3335      3385
      3385      3386      3385      3387      3385      3388      3388      3389
      3388      3390      3388      3391      3391      3392      3391      3393
      3391      3394      3394      3395      3394      3396      3394      3397
      3397      3398      3397      3399      3397      3400      3400      3401
      3400      3402      3400      3403      3403      3404      3403      3405
      3403      3406      3406      3407      3406      3408      3406      3409
      3409      3410      3409      3411      3409      3412      3412      3413
      3412      3414      3412      3415      3415      3416      3415      3417
      3415      3418      3418      3419      3418      3420      3418      3421
      3421      3422      3421      3423      3421      3424      3424      3425
      3424      3426      3424      3427      3428      3432      3428      3436
      3428      3440      3432      3433      3432      3434      3432      3435
      3436      3437      3436      3438      3436      3439      3440      3441
      3440      3442      3440      3443      3428      3429      3429      3430
      3429      3431      3429      3444      3444      3445      3444      3446
      3444      3450      3451      3452      3450      3447      3447      3451
      3447      3448      3447      3449      3452      3453      3452      3454
      3452      3455      3455      3456      3455      3463      3455      3457
      3463      3464      3463      3465      3463      3466      3457      3458
      3458      3460      3458      3459      3460      3461      3460      3462
      3460      3472      3472      3473      3472      3474      3472      3475
      3475      3476      3475      3477      3475      3478      3478      3479
      3478      3480      3478      3481      3481      3482      3481      3483
      3481      3484      3484      3485      3484      3486      3484      3487
      3487      3488      3487      3489      3487      3490      3490      3491
      3490      3492      3492      3493      3492      3494      3494      3495
      3494      3496      3494      3497      3497      3498      3497      3499
      3497      3500      3500      3501      3500      3502      3500      3503
      3503      3504      3503      3505      3503      3506      3506      3507
      3506      3508      3506      3509      3509      3510      3509      3511
      3509      3512      3512      3513      3512      3514      3512      3515
      3515      3516      3515      3517      3515      3518      3466      3467
      3467      3469      3467      3468      3469      3470      3469      3471
      3469      3519      3519      3520      3519      3521      3519      3522
      3522      3523      3522      3524      3522      3525      3525      3526
      3525      3527      3525      3528      3528      3529      3528      3530
      3528      3531      3531      3532      3531      3533      3531      3534
      3534      3535      3534      3536      3534      3537      3537      3538
      3537      3539      3537      3540      3540      3541      3540      3542
      3540      3543      3543      3544      3543      3545      3543      3546
      3546      3547      3546      3548      3546      3549      3549      3550
      3549      3551      3549      3552      3552      3553      3552      3554
      3552      3555      3555      3556      3555      3557      3555      3558
      3558      3559      3558      3560      3558      3561      3562      3566
      3562      3570      3562      3574      3566      3567      3566      3568
      3566      3569      3570      3571      3570      3572      3570      3573
      3574      3575      3574      3576      3574      3577      3562      3563
      3563      3564      3563      3565      3563      3578      3578      3579
      3578      3580      3578      3584      3585      3586      3584      3581
      3581      3585      3581      3582      3581      3583      3586      3587
      3586      3588      3586      3589      3589      3590      3589      3597
      3589      3591      3597      3598      3597      3599      3597      3600
      3591      3592      3592      3594      3592      3593      3594      3595
      3594      3596      3594      3606      3606      3607      3606      3608
      3606      3609      3609      3610      3609      3611      3609      3612
      3612      3613      3612      3614      3612      3615      3615      3616
      3615      3617      3615      3618      3618      3619      3618      3620
      3618      3621      3621      3622      3621      3623      3621      3624
      3624      3625      3624      3626      3626      3627      3626      3628
      3628      3629      3628      3630      3628      3631      3631      3632
      3631      3633      3631      3634      3634      3635      3634      3636
      3634      3637      3637      3638      3637      3639      3637      3640
      3640      3641      3640      3642      3640      3643      3643      3644
      3643      3645      3643      3646      3646      3647      3646      3648
      3646      3649      3649      3650      3649      3651      3649      3652
      3600      3601      3601      3603      3601      3602      3603      3604
      3603      3605      3603      3653      3653      3654      3653      3655
      3653      3656      3656      3657      3656      3658      3656      3659
      3659      3660      3659      3661      3659      3662      3662      3663
      3662      3664      3662      3665      3665      3666      3665      3667
      3665      3668      3668      3669      3668      3670      3668      3671
      3671      3672      3671      3673      3671      3674      3674      3675
      3674      3676      3674      3677      3677      3678      3677      3679
      3677      3680      3680      3681      3680      3682      3680      3683
      3683      3684      3683      3685      3683      3686      3686      3687
      3686      3688      3686      3689      3689      3690      3689      3691
      3689      3692      3692      3693      3692      3694      3692      3695
      3696      3700      3696      3704      3696      3708      3700      3701
      3700      3702      3700      3703      3704      3705      3704      3706
      3704      3707      3708      3709      3708      3710      3708      3711
      3696      3697      3697      3698      3697      3699      3697      3712
      3712      3713      3712      3714      3712      3718      3719      3720
      3718      3715      3715      3719      3715      3716      3715      3717
      3720      3721      3720      3722      3720      3723      3723      3724
      3723      3731      3723      3725      3731      3732      3731      3733
      3731      3734      3725      3726      3726      3728      3726      3727
      3728      3729      3728      3730      3728      3740      3740      3741
      3740      3742      3740      3743      3743      3744      3743      3745
      3743      3746      3746      3747      3746      3748      3746      3749
      3749      3750      3749      3751      3749      3752      3752      3753
      3752      3754      3752      3755      3755      3756      3755      3757
      3755      3758      3758      3759      3758      3760      3760      3761
      3760      3762      3762      3763      3762      3764      3762      3765
      3765      3766      3765      3767      3765      3768      3768      3769
      3768      3770      3768      3771      3771      3772      3771      3773
      3771      3774      3774      3775      3774      3776      3774      3777
      3777      3778      3777      3779      3777      3780      3780      3781
      3780      3782      3780      3783      3783      3784      3783      3785
      3783      3786      3734      3735      3735      3737      3735      3736
      3737      3738      3737      3739      3737      3787      3787      3788
      3787      3789      3787      3790      3790      3791      3790      3792
      3790      3793      3793      3794      3793      3795      3793      3796
      3796      3797      3796      3798      3796      3799      3799      3800
      3799      3801      3799      3802      3802      3803      3802      3804
      3802      3805      3805      3806      3805      3807      3805      3808
      3808      3809      3808      3810      3808      3811      3811      3812
      3811      3813      3811      3814      3814      3815      3814      3816
      3814      3817      3817      3818      3817      3819      3817      3820
      3820      3821      3820      3822      3820      3823      3823      3824
      3823      3825      3823      3826      3826      3827      3826      3828
      3826      3829      3830      3834      3830      3838      3830      3842
      3834      3835      3834      3836      3834      3837      3838      3839
      3838      3840      3838      3841      3842      3843      3842      3844
      3842      3845      3830      3831      3831      3832      3831      3833
      3831      3846      3846      3847      3846      3848      3846      3852
      3853      3854      3852      3849      3849      3853      3849      3850
      3849      3851      3854      3855      3854      3856      3854      3857
      3857      3858      3857      3865      3857      3859      3865      3866
      3865      3867      3865      3868      3859      3860      3860      3862
      3860      3861      3862      3863      3862      3864      3862      3874
      3874      3875      3874      3876      3874      3877      3877      3878
      3877      3879      3877      3880      3880      3881      3880      3882
      3880      3883      3883      3884      3883      3885      3883      3886
      3886      3887      3886      3888      3886      3889      3889      3890
      3889      3891      3889      3892      3892      3893      3892      3894
      3894      3895      3894      3896      3896      3897      3896      3898
      3896      3899      3899      3900      3899      3901      3899      3902
      3902      3903      3902      3904      3902      3905      3905      3906
      3905      3907      3905      3908      3908      3909      3908      3910
      3908      3911      3911      3912      3911      3913      3911      3914
      3914      3915      3914      3916      3914      3917      3917      3918
      3917      3919      3917      3920      3868      3869      3869      3871
      3869      3870      3871      3872      3871      3873      3871      3921
      3921      3922      3921      3923      3921      3924      3924      3925
      3924      3926      3924      3927      3927      3928      3927      3929
      3927      3930      3930      3931      3930      3932      3930      3933
      3933      3934      3933      3935      3933      3936      3936      3937
      3936      3938      3936      3939      3939      3940      3939      3941
      3939      3942      3942      3943      3942      3944      3942      3945
      3945      3946      3945      3947      3945      3948      3948      3949
      3948      3950      3948      3951      3951      3952      3951      3953
      3951      3954      3954      3955      3954      3956      3954      3957
      3957      3958      3957      3959      3957      3960      3960      3961
      3960      3962      3960      3963      3964      3968      3964      3972
      3964      3976      3968      3969      3968      3970      3968      3971
      3972      3973      3972      3974      3972      3975      3976      3977
      3976      3978      3976      3979      3964      3965      3965      3966
      3965      3967      3965      3980      3980      3981      3980      3982
      3980      3986      3987      3988      3986      3983      3983      3987
      3983      3984      3983      3985      3988      3989      3988      3990
      3988      3991      3991      3992      3991      3999      3991      3993
      3999      4000      3999      4001      3999      4002      3993      3994
      3994      3996      3994      3995      3996      3997      3996      3998
      3996      4008      4008      4009      4008      4010      4008      4011
      4011      4012      4011      4013      4011      4014      4014      4015
      4014      4016      4014      4017      4017      4018      4017      4019
      4017      4020      4020      4021      4020      4022      4020      4023
      4023      4024      4023      4025      4023      4026      4026      4027
      4026      4028      4028      4029      4028      4030      4030      4031
      4030      4032      4030      4033      4033      4034      4033      4035
      4033      4036      4036      4037      4036      4038      4036      4039
      4039      4040      4039      4041      4039      4042      4042      4043
      4042      4044      4042      4045      4045      4046      4045      4047
      4045      4048      4048      4049      4048      4050      4048      4051
      4051      4052      4051      4053      4051      4054      4002      4003
      4003      4005      4003      4004      4005      4006      4005      4007
      4005      4055      4055      4056      4055      4057      4055      4058
      4058      4059      4058      4060      4058      4061      4061      4062
      4061      4063      4061      4064      4064      4065      4064      4066
      4064      4067      4067      4068      4067      4069      4067      4070
      4070      4071      4070      4072      4070      4073      4073      4074
      4073      4075      4073      4076      4076      4077      4076      4078
      4076      4079      4079      4080      4079      4081      4079      4082
      4082      4083      4082      4084      4082      4085      4085      4086
      4085      4087      4085      4088      4088      4089      4088      4090
      4088      4091      4091      4092      4091      4093      4091      4094
      4094      4095      4094      4096      4094      4097      4098      4099
      4098      4100      4098      4101      4098      4102      4106      4104
      4104      4102      4104      4105      4102      4103      4102      4107
      4115      4114      4107      4108      4107      4109      4107      4113
      4113      4110      4110      4114      4110      4111      4110      4112
      4115      4116      4115      4117      4115      4118      4118      4119
      4118      4126      4118      4120      4126      4127      4126      4128
      4126      4129      4120      4121      4121      4123      4121      4122
      4123      4124      4123      4125      4123      4135      4135      4136
      4135      4137      4135      4138      4138      4139      4138      4140
      4138      4141      4141      4142      4141      4143      4141      4144
      4144      4145      4144      4146      4144      4147      4147      4148
      4147      4149      4147      4150      4150      4151      4150      4152
      4150      4153      4153      4154      4153      4155      4155      4156
      4155      4157      4157      4158      4157      4159      4157      4160
      4160      4161      4160      4162      4160      4163      4163      4164
      4163      4165      4163      4166      4166      4167      4166      4168
      4166      4169      4169      4170      4169      4171      4169      4172
      4172      4173      4172      4174      4172      4175      4175      4176
      4175      4177      4175      4178      4178      4179      4178      4180
      4178      4181      4129      4130      4130      4132      4130      4131
      4132      4133      4132      4134      4132      4182      4182      4183
      4182      4184      4182      4185      4185      4186      4185      4187
      4185      4188      4188      4189      4188      4190      4188      4191
      4191      4192      4191      4193      4191      4194      4194      4195
      4194      4196      4194      4197      4197      4198      4197      4199
      4197      4200      4200      4201      4200      4202      4200      4203
      4203      4204      4203      4205      4203      4206      4206      4207
      4206      4208      4206      4209      4209      4210      4209      4211
      4209      4212      4212      4213      4212      4214      4212      4215
      4215      4216      4215      4217      4215      4218      4218      4219
      4218      4220      4218      4221      4221      4222      4221      4223
      4221      4224      4225      4229      4225      4233      4225      4237
      4229      4230      4229      4231      4229      4232      4233      4234
      4233      4235      4233      4236      4237      4238      4237      4239
      4237      4240      4225      4226      4226      4227      4226      4228
      4226      4241      4241      4242      4241      4243      4241      4247
      4248      4249      4247      4244      4244      4248      4244      4245
      4244      4246      4249      4250      4249      4251      4249      4252
      4252      4253      4252      4260      4252      4254      4260      4261
      4260      4262      4260      4263      4254      4255      4255      4257
      4255      4256      4257      4258      4257      4259      4257      4269
      4269      4270      4269      4271      4269      4272      4272      4273
      4272      4274      4272      4275      4275      4276      4275      4277
      4275      4278      4278      4279      4278      4280      4278      4281
      4281      4282      4281      4283      4281      4284      4284      4285
      4284      4286      4284      4287      4287      4288      4287      4289
      4289      4290      4289      4291      4291      4292      4291      4293
      4291      4294      4294      4295      4294      4296      4294      4297
      4297      4298      4297      4299      4297      4300      4300      4301
      4300      4302      4300      4303      4303      4304      4303      4305
      4303      4306      4306      4307      4306      4308      4306      4309
      4309      4310      4309      4311      4309      4312      4312      4313
      4312      4314      4312      4315      4263      4264      4264      4266
      4264      4265      4266      4267      4266      4268      4266      4316
      4316      4317      4316      4318      4316      4319      4319      4320
      4319      4321      4319      4322      4322      4323      4322      4324
      4322      4325      4325      4326      4325      4327      4325      4328
      4328      4329      4328      4330      4328      4331      4331      4332
      4331      4333      4331      4334      4334      4335      4334      4336
      4334      4337      4337      4338      4337      4339      4337      4340
      4340      4341      4340      4342      4340      4343      4343      4344
      4343      4345      4343      4346      4346      4347      4346      4348
      4346      4349      4349      4350      4349      4351      4349      4352
      4352      4353      4352      4354      4352      4355      4355      4356
      4355      4357      4355      4358      4359      4363      4359      4367
      4359      4371      4363      4364      4363      4365      4363      4366
      4367      4368      4367      4369      4367      4370      4371      4372
      4371      4373      4371      4374      4359      4360      4360      4361
      4360      4362      4360      4375      4375      4376      4375      4377
      4375      4381      4382      4383      4381      4378      4378      4382
      4378      4379      4378      4380      4383      4384      4383      4385
      4383      4386      4386      4387      4386      4394      4386      4388
      4394      4395      4394      4396      4394      4397      4388      4389
      4389      4391      4389      4390      4391      4392      4391      4393
      4391      4403      4403      4404      4403      4405      4403      4406
      4406      4407      4406      4408      4406      4409      4409      4410
      4409      4411      4409      4412      4412      4413      4412      4414
      4412      4415      4415      4416      4415      4417      4415      4418
      4418      4419      4418      4420      4418      4421      4421      4422
      4421      4423      4423      4424      4423      4425      4425      4426
      4425      4427      4425      4428      4428      4429      4428      4430
      4428      4431      4431      4432      4431      4433      4431      4434
      4434      4435      4434      4436      4434      4437      4437      4438
      4437      4439      4437      4440      4440      4441      4440      4442
      4440      4443      4443      4444      4443      4445      4443      4446
      4446      4447      4446      4448      4446      4449      4397      4398
      4398      4400      4398      4399      4400      4401      4400      4402
      4400      4450      4450      4451      4450      4452      4450      4453
      4453      4454      4453      4455      4453      4456      4456      4457
      4456      4458      4456      4459      4459      4460      4459      4461
      4459      4462      4462      4463      4462      4464      4462      4465
      4465      4466      4465      4467      4465      4468      4468      4469
      4468      4470      4468      4471      4471      4472      4471      4473
      4471      4474      4474      4475      4474      4476      4474      4477
      4477      4478      4477      4479      4477      4480      4480      4481
      4480      4482      4480      4483      4483      4484      4483      4485
      4483      4486      4486      4487      4486      4488      4486      4489
      4489      4490      4489      4491      4489      4492      4493      4497
      4493      4501      4493      4505      4497      4498      4497      4499
      4497      4500      4501      4502      4501      4503      4501      4504
      4505      4506      4505      4507      4505      4508      4493      4494
      4494      4495      4494      4496      4494      4509      4509      4510
      4509      4511      4509      4515      4516      4517      4515      4512
      4512      4516      4512      4513      4512      4514      4517      4518
      4517      4519      4517      4520      4520      4521      4520      4528
      4520      4522      4528      4529      4528      4530      4528      4531
      4522      4523      4523      4525      4523      4524      4525      4526
      4525      4527      4525      4537      4537      4538      4537      4539
      4537      4540      4540      4541      4540      4542      4540      4543
      4543      4544      4543      4545      4543      4546      4546      4547
      4546      4548      4546      4549      4549      4550      4549      4551
      4549      4552      4552      4553      4552      4554      4552      4555
      4555      4556      4555      4557      4557      4558      4557      4559
      4559      4560      4559      4561      4559      4562      4562      4563
      4562      4564      4562      4565      4565      4566      4565      4567
      4565      4568      4568      4569      4568      4570      4568      4571
      4571      4572      4571      4573      4571      4574      4574      4575
      4574      4576      4574      4577      4577      4578      4577      4579
      4577      4580      4580      4581      4580      4582      4580      4583
      4531      4532      4532      4534      4532      4533      4534      4535
      4534      4536      4534      4584      4584      4585      4584      4586
      4584      4587      4587      4588      4587      4589      4587      4590
      4590      4591      4590      4592      4590      4593      4593      4594
      4593      4595      4593      4596      4596      4597      4596      4598
      4596      4599      4599      4600      4599      4601      4599      4602
      4602      4603      4602      4604      4602      4605      4605      4606
      4605      4607      4605      4608      4608      4609      4608      4610
      4608      4611      4611      4612      4611      4613      4611      4614
      4614      4615      4614      4616      4614      4617      4617      4618
      4617      4619      4617      4620      4620      4621      4620      4622
      4620      4623      4623      4624      4623      4625      4623      4626
      4627      4631      4627      4635      4627      4639      4631      4632
      4631      4633      4631      4634      4635      4636      4635      4637
      4635      4638      4639      4640      4639      4641      4639      4642
      4627      4628      4628      4629      4628      4630      4628      4643
      4643      4644      4643      4645      4643      4649      4650      4651
      4649      4646      4646      4650      4646      4647      4646      4648
      4651      4652      4651      4653      4651      4654      4654      4655
      4654      4662      4654      4656      4662      4663      4662      4664
      4662      4665      4656      4657      4657      4659      4657      4658
      4659      4660      4659      4661      4659      4671      4671      4672
      4671      4673      4671      4674      4674      4675      4674      4676
      4674      4677      4677      4678      4677      4679      4677      4680
      4680      4681      4680      4682      4680      4683      4683      4684
      4683      4685      4683      4686      4686      4687      4686      4688
      4686      4689      4689      4690      4689      4691      4691      4692
      4691      4693      4693      4694      4693      4695      4693      4696
      4696      4697      4696      4698      4696      4699      4699      4700
      4699      4701      4699      4702      4702      4703      4702      4704
      4702      4705      4705      4706      4705      4707      4705      4708
      4708      4709      4708      4710      4708      4711      4711      4712
      4711      4713      4711      4714      4714      4715      4714      4716
      4714      4717      4665      4666      4666      4668      4666      4667
      4668      4669      4668      4670      4668      4718      4718      4719
      4718      4720      4718      4721      4721      4722      4721      4723
      4721      4724      4724      4725      4724      4726      4724      4727
      4727      4728      4727      4729      4727      4730      4730      4731
      4730      4732      4730      4733      4733      4734      4733      4735
      4733      4736      4736      4737      4736      4738      4736      4739
      4739      4740      4739      4741      4739      4742      4742      4743
      4742      4744      4742      4745      4745      4746      4745      4747
      4745      4748      4748      4749      4748      4750      4748      4751
      4751      4752      4751      4753      4751      4754      4754      4755
      4754      4756      4754      4757      4757      4758      4757      4759
      4757      4760      4761      4765      4761      4769      4761      4773
      4765      4766      4765      4767      4765      4768      4769      4770
      4769      4771      4769      4772      4773      4774      4773      4775
      4773      4776      4761      4762      4762      4763      4762      4764
      4762      4777      4777      4778      4777      4779      4777      4783
      4784      4785      4783      4780      4780      4784      4780      4781
      4780      4782      4785      4786      4785      4787      4785      4788
      4788      4789      4788      4796      4788      4790      4796      4797
      4796      4798      4796      4799      4790      4791      4791      4793
      4791      4792      4793      4794      4793      4795      4793      4805
      4805      4806      4805      4807      4805      4808      4808      4809
      4808      4810      4808      4811      4811      4812      4811      4813
      4811      4814      4814      4815      4814      4816      4814      4817
      4817      4818      4817      4819      4817      4820      4820      4821
      4820      4822      4820      4823      4823      4824      4823      4825
      4825      4826      4825      4827      4827      4828      4827      4829
      4827      4830      4830      4831      4830      4832      4830      4833
      4833      4834      4833      4835      4833      4836      4836      4837
      4836      4838      4836      4839      4839      4840      4839      4841
      4839      4842      4842      4843      4842      4844      4842      4845
      4845      4846      4845      4847      4845      4848      4848      4849
      4848      4850      4848      4851      4799      4800      4800      4802
      4800      4801      4802      4803      4802      4804      4802      4852
      4852      4853      4852      4854      4852      4855      4855      4856
      4855      4857      4855      4858      4858      4859      4858      4860
      4858      4861      4861      4862      4861      4863      4861      4864
      4864      4865      4864      4866      4864      4867      4867      4868
      4867      4869      4867      4870      4870      4871      4870      4872
      4870      4873      4873      4874      4873      4875      4873      4876
      4876      4877      4876      4878      4876      4879      4879      4880
      4879      4881      4879      4882      4882      4883      4882      4884
      4882      4885      4885      4886      4885      4887      4885      4888
      4888      4889      4888      4890      4888      4891      4891      4892
      4891      4893      4891      4894      4895      4896      4895      4897
      4895      4898      4895      4899      4903      4901      4901      4899
      4901      4902      4899      4900      4899      4904      4912      4911
      4904      4905      4904      4906      4904      4910      4910      4907
      4907      4911      4907      4908      4907      4909      4912      4913
      4912      4914      4912      4915      4915      4916      4915      4923
      4915      4917      4923      4924      4923      4925      4923      4926
      4917      4918      4918      4920      4918      4919      4920      4921
      4920      4922      4920      4932      4932      4933      4932      4934
      4932      4935      4935      4936      4935      4937      4935      4938
      4938      4939      4938      4940      4938      4941      4941      4942
      4941      4943      4941      4944      4944      4945      4944      4946
      4944      4947      4947      4948      4947      4949      4947      4950
      4950      4951      4950      4952      4952      4953      4952      4954
      4954      4955      4954      4956      4954      4957      4957      4958
      4957      4959      4957      4960      4960      4961      4960      4962
      4960      4963      4963      4964      4963      4965      4963      4966
      4966      4967      4966      4968      4966      4969      4969      4970
      4969      4971      4969      4972      4972      4973      4972      4974
      4972      4975      4975      4976      4975      4977      4975      4978
      4926      4927      4927      4929      4927      4928      4929      4930
      4929      4931      4929      4979      4979      4980      4979      4981
      4979      4982      4982      4983      4982      4984      4982      4985
      4985      4986      4985      4987      4985      4988      4988      4989
      4988      4990      4988      4991      4991      4992      4991      4993
      4991      4994      4994      4995      4994      4996      4994      4997
      4997      4998      4997      4999      4997      5000      5000      5001
      5000      5002      5000      5003      5003      5004      5003      5005
      5003      5006      5006      5007      5006      5008      5006      5009
      5009      5010      5009      5011      5009      5012      5012      5013
      5012      5014      5012      5015      5015      5016      5015      5017
      5015      5018      5018      5019      5018      5020      5018      5021
      5022      5026      5022      5030      5022      5034      5026      5027
      5026      5028      5026      5029      5030      5031      5030      5032
      5030      5033      5034      5035      5034      5036      5034      5037
      5022      5023      5023      5024      5023      5025      5023      5038
      5038      5039      5038      5040      5038      5044      5045      5046
      5044      5041      5041      5045      5041      5042      5041      5043
      5046      5047      5046      5048      5046      5049      5049      5050
      5049      5057      5049      5051      5057      5058      5057      5059
      5057      5060      5051      5052      5052      5054      5052      5053
      5054      5055      5054      5056      5054      5066      5066      5067
      5066      5068      5066      5069      5069      5070      5069      5071
      5069      5072      5072      5073      5072      5074      5072      5075
      5075      5076      5075      5077      5075      5078      5078      5079
      5078      5080      5078      5081      5081      5082      5081      5083
      5081      5084      5084      5085      5084      5086      5086      5087
      5086      5088      5088      5089      5088      5090      5088      5091
      5091      5092      5091      5093      5091      5094      5094      5095
      5094      5096      5094      5097      5097      5098      5097      5099
      5097      5100      5100      5101      5100      5102      5100      5103
      5103      5104      5103      5105      5103      5106      5106      5107
      5106      5108      5106      5109      5109      5110      5109      5111
      5109      5112      5060      5061      5061      5063      5061      5062
      5063      5064      5063      5065      5063      5113      5113      5114
      5113      5115      5113      5116      5116      5117      5116      5118
      5116      5119      5119      5120      5119      5121      5119      5122
      5122      5123      5122      5124      5122      5125      5125      5126
      5125      5127      5125      5128      5128      5129      5128      5130
      5128      5131      5131      5132      5131      5133      5131      5134
      5134      5135      5134      5136      5134      5137      5137      5138
      5137      5139      5137      5140      5140      5141      5140      5142
      5140      5143      5143      5144      5143      5145      5143      5146
      5146      5147      5146      5148      5146      5149      5149      5150
      5149      5151      5149      5152      5152      5153      5152      5154
      5152      5155      5156      5160      5156      5164      5156      5168
      5160      5161      5160      5162      5160      5163      5164      5165
      5164      5166      5164      5167      5168      5169      5168      5170
      5168      5171      5156      5157      5157      5158      5157      5159
      5157      5172      5172      5173      5172      5174      5172      5178
      5179      5180      5178      5175      5175      5179      5175      5176
      5175      5177      5180      5181      5180      5182      5180      5183
      5183      5184      5183      5191      5183      5185      5191      5192
      5191      5193      5191      5194      5185      5186      5186      5188
      5186      5187      5188      5189      5188      5190      5188      5200
      5200      5201      5200      5202      5200      5203      5203      5204
      5203      5205      5203      5206      5206      5207      5206      5208
      5206      5209      5209      5210      5209      5211      5209      5212
      5212      5213      5212      5214      5212      5215      5215      5216
      5215      5217      5215      5218      5218      5219      5218      5220
      5220      5221      5220      5222      5222      5223      5222      5224
      5222      5225      5225      5226      5225      5227      5225      5228
      5228      5229      5228      5230      5228      5231      5231      5232
      5231      5233      5231      5234      5234      5235      5234      5236
      5234      5237      5237      5238      5237      5239      5237      5240
      5240      5241      5240      5242      5240      5243      5243      5244
      5243      5245      5243      5246      5194      5195      5195      5197
      5195      5196      5197      5198      5197      5199      5197      5247
      5247      5248      5247      5249      5247      5250      5250      5251
      5250      5252      5250      5253      5253      5254      5253      5255
      5253      5256      5256      5257      5256      5258      5256      5259
      5259      5260      5259      5261      5259      5262      5262      5263
      5262      5264      5262      5265      5265      5266      5265      5267
      5265      5268      5268      5269      5268      5270      5268      5271
      5271      5272      5271      5273      5271      5274      5274      5275
      5274      5276      5274      5277      5277      5278      5277      5279
      5277      5280      5280      5281      5280      5282      5280      5283
      5283      5284      5283      5285      5283      5286      5286      5287
      5286      5288      5286      5289      5290      5294      5290      5298
      5290      5302      5294      5295      5294      5296      5294      5297
      5298      5299      5298      5300      5298      5301      5302      5303
      5302      5304      5302      5305      5290      5291      5291      5292
      5291      5293      5291      5306      5306      5307      5306      5308
      5306      5312      5313      5314      5312      5309      5309      5313
      5309      5310      5309      5311      5314      5315      5314      5316
      5314      5317      5317      5318      5317      5325      5317      5319
      5325      5326      5325      5327      5325      5328      5319      5320
      5320      5322      5320      5321      5322      5323      5322      5324
      5322      5334      5334      5335      5334      5336      5334      5337
      5337      5338      5337      5339      5337      5340      5340      5341
      5340      5342      5340      5343      5343      5344      5343      5345
      5343      5346      5346      5347      5346      5348      5346      5349
      5349      5350      5349      5351      5349      5352      5352      5353
      5352      5354      5354      5355      5354      5356      5356      5357
      5356      5358      5356      5359      5359      5360      5359      5361
      5359      5362      5362      5363      5362      5364      5362      5365
      5365      5366      5365      5367      5365      5368      5368      5369
      5368      5370      5368      5371      5371      5372      5371      5373
      5371      5374      5374      5375      5374      5376      5374      5377
      5377      5378      5377      5379      5377      5380      5328      5329
      5329      5331      5329      5330      5331      5332      5331      5333
      5331      5381      5381      5382      5381      5383      5381      5384
      5384      5385      5384      5386      5384      5387      5387      5388
      5387      5389      5387      5390      5390      5391      5390      5392
      5390      5393      5393      5394      5393      5395      5393      5396
      5396      5397      5396      5398      5396      5399      5399      5400
      5399      5401      5399      5402      5402      5403      5402      5404
      5402      5405      5405      5406      5405      5407      5405      5408
      5408      5409      5408      5410      5408      5411      5411      5412
      5411      5413      5411      5414      5414      5415      5414      5416
      5414      5417      5417      5418      5417      5419      5417      5420
      5420      5421      5420      5422      5420      5423      5424      5428
      5424      5432      5424      5436      5428      5429      5428      5430
      5428      5431      5432      5433      5432      5434      5432      5435
      5436      5437      5436      5438      5436      5439      5424      5425
      5425      5426      5425      5427      5425      5440      5440      5441
      5440      5442      5440      5446      5447      5448      5446      5443
      5443      5447      5443      5444      5443      5445      5448      5449
      5448      5450      5448      5451      5451      5452      5451      5459
      5451      5453      5459      5460      5459      5461      5459      5462
      5453      5454      5454      5456      5454      5455      5456      5457
      5456      5458      5456      5468      5468      5469      5468      5470
      5468      5471      5471      5472      5471      5473      5471      5474
      5474      5475      5474      5476      5474      5477      5477      5478
      5477      5479      5477      5480      5480      5481      5480      5482
      5480      5483      5483      5484      5483      5485      5483      5486
      5486      5487      5486      5488      5488      5489      5488      5490
      5490      5491      5490      5492      5490      5493      5493      5494
      5493      5495      5493      5496      5496      5497      5496      5498
      5496      5499      5499      5500      5499      5501      5499      5502
      5502      5503      5502      5504      5502      5505      5505      5506
      5505      5507      5505      5508      5508      5509      5508      5510
      5508      5511      5511      5512      5511      5513      5511      5514
      5462      5463      5463      5465      5463      5464      5465      5466
      5465      5467      5465      5515      5515      5516      5515      5517
      5515      5518      5518      5519      5518      5520      5518      5521
      5521      5522      5521      5523      5521      5524      5524      5525
      5524      5526      5524      5527      5527      5528      5527      5529
      5527      5530      5530      5531      5530      5532      5530      5533
      5533      5534      5533      5535      5533      5536      5536      5537
      5536      5538      5536      5539      5539      5540      5539      5541
      5539      5542      5542      5543      5542      5544      5542      5545
      5545      5546      5545      5547      5545      5548      5548      5549
      5548      5550      5548      5551      5551      5552      5551      5553
      5551      5554      5554      5555      5554      5556      5554      5557
      5558      5562      5558      5566      5558      5570      5562      5563
      5562      5564      5562      5565      5566      5567      5566      5568
      5566      5569      5570      5571      5570      5572      5570      5573
      5558      5559      5559      5560      5559      5561      5559      5574
      5574      5575      5574      5576      5574      5580      5581      5582
      5580      5577      5577      5581      5577      5578      5577      5579
      5582      5583      5582      5584      5582      5585      5585      5586
      5585      5593      5585      5587      5593      5594      5593      5595
      5593      5596      5587      5588      5588      5590      5588      5589
      5590      5591      5590      5592      5590      5602      5602      5603
      5602      5604      5602      5605      5605      5606      5605      5607
      5605      5608      5608      5609      5608      5610      5608      5611
      5611      5612      5611      5613      5611      5614      5614      5615
      5614      5616      5614      5617      5617      5618      5617      5619
      5617      5620      5620      5621      5620      5622      5622      5623
      5622      5624      5624      5625      5624      5626      5624      5627
      5627      5628      5627      5629      5627      5630      5630      5631
      5630      5632      5630      5633      5633      5634      5633      5635
      5633      5636      5636      5637      5636      5638      5636      5639
      5639      5640      5639      5641      5639      5642      5642      5643
      5642      5644      5642      5645      5645      5646      5645      5647
      5645      5648      5596      5597      5597      5599      5597      5598
      5599      5600      5599      5601      5599      5649      5649      5650
      5649      5651      5649      5652      5652      5653      5652      5654
      5652      5655      5655      5656      5655      5657      5655      5658
      5658      5659      5658      5660      5658      5661      5661      5662
      5661      5663      5661      5664      5664      5665      5664      5666
      5664      5667      5667      5668      5667      5669      5667      5670
      5670      5671      5670      5672      5670      5673      5673      5674
      5673      5675      5673      5676      5676      5677      5676      5678
      5676      5679      5679      5680      5679      5681      5679      5682
      5682      5683      5682      5684      5682      5685      5685      5686
      5685      5687      5685      5688      5688      5689      5688      5690
      5688      5691      5692      5696      5692      5700      5692      5704
      5696      5697      5696      5698      5696      5699      5700      5701
      5700      5702      5700      5703      5704      5705      5704      5706
      5704      5707      5692      5693      5693      5694      5693      5695
      5693      5708      5708      5709      5708      5710      5708      5714
      5715      5716      5714      5711      5711      5715      5711      5712
      5711      5713      5716      5717      5716      5718      5716      5719
      5719      5720      5719      5727      5719      5721      5727      5728
      5727      5729      5727      5730      5721      5722      5722      5724
      5722      5723      5724      5725      5724      5726      5724      5736
      5736      5737      5736      5738      5736      5739      5739      5740
      5739      5741      5739      5742      5742      5743      5742      5744
      5742      5745      5745      5746      5745      5747      5745      5748
      5748      5749      5748      5750      5748      5751      5751      5752
      5751      5753      5751      5754      5754      5755      5754      5756
      5756      5757      5756      5758      5758      5759      5758      5760
      5758      5761      5761      5762      5761      5763      5761      5764
      5764      5765      5764      5766      5764      5767      5767      5768
      5767      5769      5767      5770      5770      5771      5770      5772
      5770      5773      5773      5774      5773      5775      5773      5776
      5776      5777      5776      5778      5776      5779      5779      5780
      5779      5781      5779      5782      5730      5731      5731      5733
      5731      5732      5733      5734      5733      5735      5733      5783
      5783      5784      5783      5785      5783      5786      5786      5787
      5786      5788      5786      5789      5789      5790      5789      5791
      5789      5792      5792      5793      5792      5794      5792      5795
      5795      5796      5795      5797      5795      5798      5798      5799
      5798      5800      5798      5801      5801      5802      5801      5803
      5801      5804      5804      5805      5804      5806      5804      5807
      5807      5808      5807      5809      5807      5810      5810      5811
      5810      5812      5810      5813      5813      5814      5813      5815
      5813      5816      5816      5817      5816      5818      5816      5819
      5819      5820      5819      5821      5819      5822      5822      5823
      5822      5824      5822      5825      5826      5830      5826      5834
      5826      5838      5830      5831      5830      5832      5830      5833
      5834      5835      5834      5836      5834      5837      5838      5839
      5838      5840      5838      5841      5826      5827      5827      5828
      5827      5829      5827      5842      5842      5843      5842      5844
      5842      5848      5849      5850      5848      5845      5845      5849
      5845      5846      5845      5847      5850      5851      5850      5852
      5850      5853      5853      5854      5853      5861      5853      5855
      5861      5862      5861      5863      5861      5864      5855      5856
      5856      5858      5856      5857      5858      5859      5858      5860
      5858      5870      5870      5871      5870      5872      5870      5873
      5873      5874      5873      5875      5873      5876      5876      5877
      5876      5878      5876      5879      5879      5880      5879      5881
      5879      5882      5882      5883      5882      5884      5882      5885
      5885      5886      5885      5887      5885      5888      5888      5889
      5888      5890      5890      5891      5890      5892      5892      5893
      5892      5894      5892      5895      5895      5896      5895      5897
      5895      5898      5898      5899      5898      5900      5898      5901
      5901      5902      5901      5903      5901      5904      5904      5905
      5904      5906      5904      5907      5907      5908      5907      5909
      5907      5910      5910      5911      5910      5912      5910      5913
      5913      5914      5913      5915      5913      5916      5864      5865
      5865      5867      5865      5866      5867      5868      5867      5869
      5867      5917      5917      5918      5917      5919      5917      5920
      5920      5921      5920      5922      5920      5923      5923      5924
      5923      5925      5923      5926      5926      5927      5926      5928
      5926      5929      5929      5930      5929      5931      5929      5932
      5932      5933      5932      5934      5932      5935      5935      5936
      5935      5937      5935      5938      5938      5939      5938      5940
      5938      5941      5941      5942      5941      5943      5941      5944
      5944      5945      5944      5946      5944      5947      5947      5948
      5947      5949      5947      5950      5950      5951      5950      5952
      5950      5953      5953      5954      5953      5955      5953      5956
      5956      5957      5956      5958      5956      5959      5960      5964
      5960      5968      5960      5972      5964      5965      5964      5966
      5964      5967      5968      5969      5968      5970      5968      5971
      5972      5973      5972      5974      5972      5975      5960      5961
      5961      5962      5961      5963      5961      5976      5976      5977
      5976      5978      5976      5982      5983      5984      5982      5979
      5979      5983      5979      5980      5979      5981      5984      5985
      5984      5986      5984      5987      5987      5988      5987      5995
      5987      5989      5995      5996      5995      5997      5995      5998
      5989      5990      5990      5992      5990      5991      5992      5993
      5992      5994      5992      6004      6004      6005      6004      6006
      6004      6007      6007      6008      6007      6009      6007      6010
      6010      6011      6010      6012      6010      6013      6013      6014
      6013      6015      6013      6016      6016      6017      6016      6018
      6016      6019      6019      6020      6019      6021      6019      6022
      6022      6023      6022      6024      6024      6025      6024      6026
      6026      6027      6026      6028      6026      6029      6029      6030
      6029      6031      6029      6032      6032      6033      6032      6034
      6032      6035      6035      6036      6035      6037      6035      6038
      6038      6039      6038      6040      6038      6041      6041      6042
      6041      6043      6041      6044      6044      6045      6044      6046
      6044      6047      6047      6048      6047      6049      6047      6050
      5998      5999      5999      6001      5999      6000      6001      6002
      6001      6003      6001      6051      6051      6052      6051      6053
      6051      6054      6054      6055      6054      6056      6054      6057
      6057      6058      6057      6059      6057      6060      6060      6061
      6060      6062      6060      6063      6063      6064      6063      6065
      6063      6066      6066      6067      6066      6068      6066      6069
      6069      6070      6069      6071      6069      6072      6072      6073
      6072      6074      6072      6075      6075      6076      6075      6077
      6075      6078      6078      6079      6078      6080      6078      6081
      6081      6082      6081      6083      6081      6084      6084      6085
      6084      6086      6084      6087      6087      6088      6087      6089
      6087      6090      6090      6091      6090      6092      6090      6093
      6094      6098      6094      6102      6094      6106      6098      6099
      6098      6100      6098      6101      6102      6103      6102      6104
      6102      6105      6106      6107      6106      6108      6106      6109
      6094      6095      6095      6096      6095      6097      6095      6110
      6110      6111      6110      6112      6110      6116      6117      6118
      6116      6113      6113      6117      6113      6114      6113      6115
      6118      6119      6118      6120      6118      6121      6121      6122
      6121      6129      6121      6123      6129      6130      6129      6131
      6129      6132      6123      6124      6124      6126      6124      6125
      6126      6127      6126      6128      6126      6138      6138      6139
      6138      6140      6138      6141      6141      6142      6141      6143
      6141      6144      6144      6145      6144      6146      6144      6147
      6147      6148      6147      6149      6147      6150      6150      6151
      6150      6152      6150      6153      6153      6154      6153      6155
      6153      6156      6156      6157      6156      6158      6158      6159
      6158      6160      6160      6161      6160      6162      6160      6163
      6163      6164      6163      6165      6163      6166      6166      6167
      6166      6168      6166      6169      6169      6170      6169      6171
      6169      6172      6172      6173      6172      6174      6172      6175
      6175      6176      6175      6177      6175      6178      6178      6179
      6178      6180      6178      6181      6181      6182      6181      6183
      6181      6184      6132      6133      6133      6135      6133      6134
      6135      6136      6135      6137      6135      6185      6185      6186
      6185      6187      6185      6188      6188      6189      6188      6190
      6188      6191      6191      6192      6191      6193      6191      6194
      6194      6195      6194      6196      6194      6197      6197      6198
      6197      6199      6197      6200      6200      6201      6200      6202
      6200      6203      6203      6204      6203      6205      6203      6206
      6206      6207      6206      6208      6206      6209      6209      6210
      6209      6211      6209      6212      6212      6213      6212      6214
      6212      6215      6215      6216      6215      6217      6215      6218
      6218      6219      6218      6220      6218      6221      6221      6222
      6221      6223      6221      6224      6224      6225      6224      6226
      6224      6227      6228      6232      6228      6236      6228      6240
      6232      6233      6232      6234      6232      6235      6236      6237
      6236      6238      6236      6239      6240      6241      6240      6242
      6240      6243      6228      6229      6229      6230      6229      6231
      6229      6244      6244      6245      6244      6246      6244      6250
      6251      6252      6250      6247      6247      6251      6247      6248
      6247      6249      6252      6253      6252      6254      6252      6255
      6255      6256      6255      6263      6255      6257      6263      6264
      6263      6265      6263      6266      6257      6258      6258      6260
      6258      6259      6260      6261      6260      6262      6260      6272
      6272      6273      6272      6274      6272      6275      6275      6276
      6275      6277      6275      6278      6278      6279      6278      6280
      6278      6281      6281      6282      6281      6283      6281      6284
      6284      6285      6284      6286      6284      6287      6287      6288
      6287      6289      6287      6290      6290      6291      6290      6292
      6292      6293      6292      6294      6294      6295      6294      6296
      6294      6297      6297      6298      6297      6299      6297      6300
      6300      6301      6300      6302      6300      6303      6303      6304
      6303      6305      6303      6306      6306      6307      6306      6308
      6306      6309      6309      6310      6309      6311      6309      6312
      6312      6313      6312      6314      6312      6315      6315      6316
      6315      6317      6315      6318      6266      6267      6267      6269
      6267      6268      6269      6270      6269      6271      6269      6319
      6319      6320      6319      6321      6319      6322      6322      6323
      6322      6324      6322      6325      6325      6326      6325      6327
      6325      6328      6328      6329      6328      6330      6328      6331
      6331      6332      6331      6333      6331      6334      6334      6335
      6334      6336      6334      6337      6337      6338      6337      6339
      6337      6340      6340      6341      6340      6342      6340      6343
      6343      6344      6343      6345      6343      6346      6346      6347
      6346      6348      6346      6349      6349      6350      6349      6351
      6349      6352      6352      6353      6352      6354      6352      6355
      6355      6356      6355      6357      6355      6358      6358      6359
      6358      6360      6358      6361      6362      6366      6362      6370
      6362      6374      6366      6367      6366      6368      6366      6369
      6370      6371      6370      6372      6370      6373      6374      6375
      6374      6376      6374      6377      6362      6363      6363      6364
      6363      6365      6363      6378      6378      6379      6378      6380
      6378      6384      6385      6386      6384      6381      6381      6385
      6381      6382      6381      6383      6386      6387      6386      6388
      6386      6389      6389      6390      6389      6397      6389      6391
      6397      6398      6397      6399      6397      6400      6391      6392
      6392      6394      6392      6393      6394      6395      6394      6396
      6394      6406      6406      6407      6406      6408      6406      6409
      6409      6410      6409      6411      6409      6412      6412      6413
      6412      6414      6412      6415      6415      6416      6415      6417
      6415      6418      6418      6419      6418      6420      6418      6421
      6421      6422      6421      6423      6421      6424      6424      6425
      6424      6426      6426      6427      6426      6428      6428      6429
      6428      6430      6428      6431      6431      6432      6431      6433
      6431      6434      6434      6435      6434      6436      6434      6437
      6437      6438      6437      6439      6437      6440      6440      6441
      6440      6442      6440      6443      6443      6444      6443      6445
      6443      6446      6446      6447      6446      6448      6446      6449
      6449      6450      6449      6451      6449      6452      6400      6401
      6401      6403      6401      6402      6403      6404      6403      6405
      6403      6453      6453      6454      6453      6455      6453      6456
      6456      6457      6456      6458      6456      6459      6459      6460
      6459      6461      6459      6462      6462      6463      6462      6464
      6462      6465      6465      6466      6465      6467      6465      6468
      6468      6469      6468      6470      6468      6471      6471      6472
      6471      6473      6471      6474      6474      6475      6474      6476
      6474      6477      6477      6478      6477      6479      6477      6480
      6480      6481      6480      6482      6480      6483      6483      6484
      6483      6485      6483      6486      6486      6487      6486      6488
      6486      6489      6489      6490      6489      6491      6489      6492
      6492      6493      6492      6494      6492      6495      6496      6497
      6496      6498      6496      6499      6496      6500      6504      6502
      6502      6500      6502      6503      6500      6501      6500      6505
      6513      6512      6505      6506      6505      6507      6505      6511
      6511      6508      6508      6512      6508      6509      6508      6510
      6513      6514      6513      6515      6513      6516      6516      6517
      6516      6524      6516      6518      6524      6525      6524      6526
      6524      6527      6518      6519      6519      6521      6519      6520
      6521      6522      6521      6523      6521      6533      6533      6534
      6533      6535      6533      6536      6536      6537      6536      6538
      6536      6539      6539      6540      6539      6541      6539      6542
      6542      6543      6542      6544      6542      6545      6545      6546
      6545      6547      6545      6548      6548      6549      6548      6550
      6548      6551      6551      6552      6551      6553      6553      6554
      6553      6555      6555      6556      6555      6557      6555      6558
      6558      6559      6558      6560      6558      6561      6561      6562
      6561      6563      6561      6564      6564      6565      6564      6566
      6564      6567      6567      6568      6567      6569      6567      6570
      6570      6571      6570      6572      6570      6573      6573      6574
      6573      6575      6573      6576      6576      6577      6576      6578
      6576      6579      6527      6528      6528      6530      6528      6529
      6530      6531      6530      6532      6530      6580      6580      6581
      6580      6582      6580      6583      6583      6584      6583      6585
      6583      6586      6586      6587      6586      6588      6586      6589
      6589      6590      6589      6591      6589      6592      6592      6593
      6592      6594      6592      6595      6595      6596      6595      6597
      6595      6598      6598      6599      6598      6600      6598      6601
      6601      6602      6601      6603      6601      6604      6604      6605
      6604      6606      6604      6607      6607      6608      6607      6609
      6607      6610      6610      6611      6610      6612      6610      6613
      6613      6614      6613      6615      6613      6616      6616      6617
      6616      6618      6616      6619      6619      6620      6619      6621
      6619      6622      6623      6624      6623      6625      6623      6626
      6623      6627      6631      6629      6629      6627      6629      6630
      6627      6628      6627      6632      6640      6639      6632      6633
      6632      6634      6632      6638      6638      6635      6635      6639
      6635      6636      6635      6637      6640      6641      6640      6642
      6640      6643      6643      6644      6643      6651      6643      6645
      6651      6652      6651      6653      6651      6654      6645      6646
      6646      6648      6646      6647      6648      6649      6648      6650
      6648      6660      6660      6661      6660      6662      6660      6663
      6663      6664      6663      6665      6663      6666      6666      6667
      6666      6668      6666      6669      6669      6670      6669      6671
      6669      6672      6672      6673      6672      6674      6672      6675
      6675      6676      6675      6677      6675      6678      6678      6679
      6678      6680      6680      6681      6680      6682      6682      6683
      6682      6684      6682      6685      6685      6686      6685      6687
      6685      6688      6688      6689      6688      6690      6688      6691
      6691      6692      6691      6693      6691      6694      6694      6695
      6694      6696      6694      6697      6697      6698      6697      6699
      6697      6700      6700      6701      6700      6702      6700      6703
      6703      6704      6703      6705      6703      6706      6654      6655
      6655      6657      6655      6656      6657      6658      6657      6659
      6657      6707      6707      6708      6707      6709      6707      6710
      6710      6711      6710      6712      6710      6713      6713      6714
      6713      6715      6713      6716      6716      6717      6716      6718
      6716      6719      6719      6720      6719      6721      6719      6722
      6722      6723      6722      6724      6722      6725      6725      6726
      6725      6727      6725      6728      6728      6729      6728      6730
      6728      6731      6731      6732      6731      6733      6731      6734
      6734      6735      6734      6736      6734      6737      6737      6738
      6737      6739      6737      6740      6740      6741      6740      6742
      6740      6743      6743      6744      6743      6745      6743      6746
      6746      6747      6746      6748      6746      6749      6750      6751
      6750      6752      6750      6753      6750      6754      6758      6756
      6756      6754      6756      6757      6754      6755      6754      6759
      6767      6766      6759      6760      6759      6761      6759      6765
      6765      6762      6762      6766      6762      6763      6762      6764
      6767      6768      6767      6769      6767      6770      6770      6771
      6770      6778      6770      6772      6778      6779      6778      6780
      6778      6781      6772      6773      6773      6775      6773      6774
      6775      6776      6775      6777      6775      6787      6787      6788
      6787      6789      6787      6790      6790      6791      6790      6792
      6790      6793      6793      6794      6793      6795      6793      6796
      6796      6797      6796      6798      6796      6799      6799      6800
      6799      6801      6799      6802      6802      6803      6802      6804
      6802      6805      6805      6806      6805      6807      6807      6808
      6807      6809      6809      6810      6809      6811      6809      6812
      6812      6813      6812      6814      6812      6815      6815      6816
      6815      6817      6815      6818      6818      6819      6818      6820
      6818      6821      6821      6822      6821      6823      6821      6824
      6824      6825      6824      6826      6824      6827      6827      6828
      6827      6829      6827      6830      6830      6831      6830      6832
      6830      6833      6781      6782      6782      6784      6782      6783
      6784      6785      6784      6786      6784      6834      6834      6835
      6834      6836      6834      6837      6837      6838      6837      6839
      6837      6840      6840      6841      6840      6842      6840      6843
      6843      6844      6843      6845      6843      6846      6846      6847
      6846      6848      6846      6849      6849      6850      6849      6851
      6849      6852      6852      6853      6852      6854      6852      6855
      6855      6856      6855      6857      6855      6858      6858      6859
      6858      6860      6858      6861      6861      6862      6861      6863
      6861      6864      6864      6865      6864      6866      6864      6867
      6867      6868      6867      6869      6867      6870      6870      6871
      6870      6872      6870      6873      6873      6874      6873      6875
      6873      6876      6877      6881      6877      6885      6877      6889
      6881      6882      6881      6883      6881      6884      6885      6886
      6885      6887      6885      6888      6889      6890      6889      6891
      6889      6892      6877      6878      6878      6879      6878      6880
      6878      6893      6893      6894      6893      6895      6893      6899
      6900      6901      6899      6896      6896      6900      6896      6897
      6896      6898      6901      6902      6901      6903      6901      6904
      6904      6905      6904      6912      6904      6906      6912      6913
      6912      6914      6912      6915      6906      6907      6907      6909
      6907      6908      6909      6910      6909      6911      6909      6921
      6921      6922      6921      6923      6921      6924      6924      6925
      6924      6926      6924      6927      6927      6928      6927      6929
      6927      6930      6930      6931      6930      6932      6930      6933
      6933      6934      6933      6935      6933      6936      6936      6937
      6936      6938      6936      6939      6939      6940      6939      6941
      6941      6942      6941      6943      6943      6944      6943      6945
      6943      6946      6946      6947      6946      6948      6946      6949
      6949      6950      6949      6951      6949      6952      6952      6953
      6952      6954      6952      6955      6955      6956      6955      6957
      6955      6958      6958      6959      6958      6960      6958      6961
      6961      6962      6961      6963      6961      6964      6964      6965
      6964      6966      6964      6967      6915      6916      6916      6918
      6916      6917      6918      6919      6918      6920      6918      6968
      6968      6969      6968      6970      6968      6971      6971      6972
      6971      6973      6971      6974      6974      6975      6974      6976
      6974      6977      6977      6978      6977      6979      6977      6980
      6980      6981      6980      6982      6980      6983      6983      6984
      6983      6985      6983      6986      6986      6987      6986      6988
      6986      6989      6989      6990      6989      6991      6989      6992
      6992      6993      6992      6994      6992      6995      6995      6996
      6995      6997      6995      6998      6998      6999      6998      7000
      6998      7001      7001      7002      7001      7003      7001      7004
      7004      7005      7004      7006      7004      7007      7007      7008
      7007      7009      7007      7010      7011      7015      7011      7019
      7011      7023      7015      7016      7015      7017      7015      7018
      7019      7020      7019      7021      7019      7022      7023      7024
      7023      7025      7023      7026      7011      7012      7012      7013
      7012      7014      7012      7027      7027      7028      7027      7029
      7027      7033      7034      7035      7033      7030      7030      7034
      7030      7031      7030      7032      7035      7036      7035      7037
      7035      7038      7038      7039      7038      7046      7038      7040
      7046      7047      7046      7048      7046      7049      7040      7041
      7041      7043      7041      7042      7043      7044      7043      7045
      7043      7055      7055      7056      7055      7057      7055      7058
      7058      7059      7058      7060      7058      7061      7061      7062
      7061      7063      7061      7064      7064      7065      7064      7066
      7064      7067      7067      7068      7067      7069      7067      7070
      7070      7071      7070      7072      7070      7073      7073      7074
      7073      7075      7075      7076      7075      7077      7077      7078
      7077      7079      7077      7080      7080      7081      7080      7082
      7080      7083      7083      7084      7083      7085      7083      7086
      7086      7087      7086      7088      7086      7089      7089      7090
      7089      7091      7089      7092      7092      7093      7092      7094
      7092      7095      7095      7096      7095      7097      7095      7098
      7098      7099      7098      7100      7098      7101      7049      7050
      7050      7052      7050      7051      7052      7053      7052      7054
      7052      7102      7102      7103      7102      7104      7102      7105
      7105      7106      7105      7107      7105      7108      7108      7109
      7108      7110      7108      7111      7111      7112      7111      7113
      7111      7114      7114      7115      7114      7116      7114      7117
      7117      7118      7117      7119      7117      7120      7120      7121
      7120      7122      7120      7123      7123      7124      7123      7125
      7123      7126      7126      7127      7126      7128      7126      7129
      7129      7130      7129      7131      7129      7132      7132      7133
      7132      7134      7132      7135      7135      7136      7135      7137
      7135      7138      7138      7139      7138      7140      7138      7141
      7141      7142      7141      7143      7141      7144      7145      7149
      7145      7153      7145      7157      7149      7150      7149      7151
      7149      7152      7153      7154      7153      7155      7153      7156
      7157      7158      7157      7159      7157      7160      7145      7146
      7146      7147      7146      7148      7146      7161      7161      7162
      7161      7163      7161      7167      7168      7169      7167      7164
      7164      7168      7164      7165      7164      7166      7169      7170
      7169      7171      7169      7172      7172      7173      7172      7180
      7172      7174      7180      7181      7180      7182      7180      7183
      7174      7175      7175      7177      7175      7176      7177      7178
      7177      7179      7177      7189      7189      7190      7189      7191
      7189      7192      7192      7193      7192      7194      7192      7195
      7195      7196      7195      7197      7195      7198      7198      7199
      7198      7200      7198      7201      7201      7202      7201      7203
      7201      7204      7204      7205      7204      7206      7204      7207
      7207      7208      7207      7209      7209      7210      7209      7211
      7211      7212      7211      7213      7211      7214      7214      7215
      7214      7216      7214      7217      7217      7218      7217      7219
      7217      7220      7220      7221      7220      7222      7220      7223
      7223      7224      7223      7225      7223      7226      7226      7227
      7226      7228      7226      7229      7229      7230      7229      7231
      7229      7232      7232      7233      7232      7234      7232      7235
      7183      7184      7184      7186      7184      7185      7186      7187
      7186      7188      7186      7236      7236      7237      7236      7238
      7236      7239      7239      7240      7239      7241      7239      7242
      7242      7243      7242      7244      7242      7245      7245      7246
      7245      7247      7245      7248      7248      7249      7248      7250
      7248      7251      7251      7252      7251      7253      7251      7254
      7254      7255      7254      7256      7254      7257      7257      7258
      7257      7259      7257      7260      7260      7261      7260      7262
      7260      7263      7263      7264      7263      7265      7263      7266
      7266      7267      7266      7268      7266      7269      7269      7270
      7269      7271      7269      7272      7272      7273      7272      7274
      7272      7275      7275      7276      7275      7277      7275      7278
      7279      7280      7279      7281      7279      7282      7279      7283
      7287      7285      7285      7283      7285      7286      7283      7284
      7283      7288      7296      7295      7288      7289      7288      7290
      7288      7294      7294      7291      7291      7295      7291      7292
      7291      7293      7296      7297      7296      7298      7296      7299
      7299      7300      7299      7307      7299      7301      7307      7308
      7307      7309      7307      7310      7301      7302      7302      7304
      7302      7303      7304      7305      7304      7306      7304      7316
      7316      7317      7316      7318      7316      7319      7319      7320
      7319      7321      7319      7322      7322      7323      7322      7324
      7322      7325      7325      7326      7325      7327      7325      7328
      7328      7329      7328      7330      7328      7331      7331      7332
      7331      7333      7331      7334      7334      7335      7334      7336
      7336      7337      7336      7338      7338      7339      7338      7340
      7338      7341      7341      7342      7341      7343      7341      7344
      7344      7345      7344      7346      7344      7347      7347      7348
      7347      7349      7347      7350      7350      7351      7350      7352
      7350      7353      7353      7354      7353      7355      7353      7356
      7356      7357      7356      7358      7356      7359      7359      7360
      7359      7361      7359      7362      7310      7311      7311      7313
      7311      7312      7313      7314      7313      7315      7313      7363
      7363      7364      7363      7365      7363      7366      7366      7367
      7366      7368      7366      7369      7369      7370      7369      7371
      7369      7372      7372      7373      7372      7374      7372      7375
      7375      7376      7375      7377      7375      7378      7378      7379
      7378      7380      7378      7381      7381      7382      7381      7383
      7381      7384      7384      7385      7384      7386      7384      7387
      7387      7388      7387      7389      7387      7390      7390      7391
      7390      7392      7390      7393      7393      7394      7393      7395
      7393      7396      7396      7397      7396      7398      7396      7399
      7399      7400      7399      7401      7399      7402      7402      7403
      7402      7404      7402      7405      7406      7410      7406      7414
      7406      7418      7410      7411      7410      7412      7410      7413
      7414      7415      7414      7416      7414      7417      7418      7419
      7418      7420      7418      7421      7406      7407      7407      7408
      7407      7409      7407      7422      7422      7423      7422      7424
      7422      7428      7429      7430      7428      7425      7425      7429
      7425      7426      7425      7427      7430      7431      7430      7432
      7430      7433      7433      7434      7433      7441      7433      7435
      7441      7442      7441      7443      7441      7444      7435      7436
      7436      7438      7436      7437      7438      7439      7438      7440
      7438      7450      7450      7451      7450      7452      7450      7453
      7453      7454      7453      7455      7453      7456      7456      7457
      7456      7458      7456      7459      7459      7460      7459      7461
      7459      7462      7462      7463      7462      7464      7462      7465
      7465      7466      7465      7467      7465      7468      7468      7469
      7468      7470      7470      7471      7470      7472      7472      7473
      7472      7474      7472      7475      7475      7476      7475      7477
      7475      7478      7478      7479      7478      7480      7478      7481
      7481      7482      7481      7483      7481      7484      7484      7485
      7484      7486      7484      7487      7487      7488      7487      7489
      7487      7490      7490      7491      7490      7492      7490      7493
      7493      7494      7493      7495      7493      7496      7444      7445
      7445      7447      7445      7446      7447      7448      7447      7449
      7447      7497      7497      7498      7497      7499      7497      7500
      7500      7501      7500      7502      7500      7503      7503      7504
      7503      7505      7503      7506      7506      7507      7506      7508
      7506      7509      7509      7510      7509      7511      7509      7512
      7512      7513      7512      7514      7512      7515      7515      7516
      7515      7517      7515      7518      7518      7519      7518      7520
      7518      7521      7521      7522      7521      7523      7521      7524
      7524      7525      7524      7526      7524      7527      7527      7528
      7527      7529      7527      7530      7530      7531      7530      7532
      7530      7533      7533      7534      7533      7535      7533      7536
      7536      7537      7536      7538      7536      7539      7540      7544
      7540      7548      7540      7552      7544      7545      7544      7546
      7544      7547      7548      7549      7548      7550      7548      7551
      7552      7553      7552      7554      7552      7555      7540      7541
      7541      7542      7541      7543      7541      7556      7556      7557
      7556      7558      7556      7562      7563      7564      7562      7559
      7559      7563      7559      7560      7559      7561      7564      7565
      7564      7566      7564      7567      7567      7568      7567      7575
      7567      7569      7575      7576      7575      7577      7575      7578
      7569      7570      7570      7572      7570      7571      7572      7573
      7572      7574      7572      7584      7584      7585      7584      7586
      7584      7587      7587      7588      7587      7589      7587      7590
      7590      7591      7590      7592      7590      7593      7593      7594
      7593      7595      7593      7596      7596      7597      7596      7598
      7596      7599      7599      7600      7599      7601      7599      7602
      7602      7603      7602      7604      7604      7605      7604      7606
      7606      7607      7606      7608      7606      7609      7609      7610
      7609      7611      7609      7612      7612      7613      7612      7614
      7612      7615      7615      7616      7615      7617      7615      7618
      7618      7619      7618      7620      7618      7621      7621      7622
      7621      7623      7621      7624      7624      7625      7624      7626
      7624      7627      7627      7628      7627      7629      7627      7630
      7578      7579      7579      7581      7579      7580      7581      7582
      7581      7583      7581      7631      7631      7632      7631      7633
      7631      7634      7634      7635      7634      7636      7634      7637
      7637      7638      7637      7639      7637      7640      7640      7641
      7640      7642      7640      7643      7643      7644      7643      7645
      7643      7646      7646      7647      7646      7648      7646      7649
      7649      7650      7649      7651      7649      7652      7652      7653
      7652      7654      7652      7655      7655      7656      7655      7657
      7655      7658      7658      7659      7658      7660      7658      7661
      7661      7662      7661      7663      7661      7664      7664      7665
      7664      7666      7664      7667      7667      7668      7667      7669
      7667      7670      7670      7671      7670      7672      7670      7673
      7674      7675      7674      7676      7674      7677      7674      7678
      7682      7680      7680      7678      7680      7681      7678      7679
      7678      7683      7691      7690      7683      7684      7683      7685
      7683      7689      7689      7686      7686      7690      7686      7687
      7686      7688      7691      7692      7691      7693      7691      7694
      7694      7695      7694      7702      7694      7696      7702      7703
      7702      7704      7702      7705      7696      7697      7697      7699
      7697      7698      7699      7700      7699      7701      7699      7711
      7711      7712      7711      7713      7711      7714      7714      7715
      7714      7716      7714      7717      7717      7718      7717      7719
      7717      7720      7720      7721      7720      7722      7720      7723
      7723      7724      7723      7725      7723      7726      7726      7727
      7726      7728      7726      7729      7729      7730      7729      7731
      7731      7732      7731      7733      7733      7734      7733      7735
      7733      7736      7736      7737      7736      7738      7736      7739
      7739      7740      7739      7741      7739      7742      7742      7743
      7742      7744      7742      7745      7745      7746      7745      7747
      7745      7748      7748      7749      7748      7750      7748      7751
      7751      7752      7751      7753      7751      7754      7754      7755
      7754      7756      7754      7757      7705      7706      7706      7708
      7706      7707      7708      7709      7708      7710      7708      7758
      7758      7759      7758      7760      7758      7761      7761      7762
      7761      7763      7761      7764      7764      7765      7764      7766
      7764      7767      7767      7768      7767      7769      7767      7770
      7770      7771      7770      7772      7770      7773      7773      7774
      7773      7775      7773      7776      7776      7777      7776      7778
      7776      7779      7779      7780      7779      7781      7779      7782
      7782      7783      7782      7784      7782      7785      7785      7786
      7785      7787      7785      7788      7788      7789      7788      7790
      7788      7791      7791      7792      7791      7793      7791      7794
      7794      7795      7794      7796      7794      7797      7797      7798
      7797      7799      7797      7800      7801      7805      7801      7809
      7801      7813      7805      7806      7805      7807      7805      7808
      7809      7810      7809      7811      7809      7812      7813      7814
      7813      7815      7813      7816      7801      7802      7802      7803
      7802      7804      7802      7817      7817      7818      7817      7819
      7817      7823      7824      7825      7823      7820      7820      7824
      7820      7821      7820      7822      7825      7826      7825      7827
      7825      7828      7828      7829      7828      7836      7828      7830
      7836      7837      7836      7838      7836      7839      7830      7831
      7831      7833      7831      7832      7833      7834      7833      7835
      7833      7845      7845      7846      7845      7847      7845      7848
      7848      7849      7848      7850      7848      7851      7851      7852
      7851      7853      7851      7854      7854      7855      7854      7856
      7854      7857      7857      7858      7857      7859      7857      7860
      7860      7861      7860      7862      7860      7863      7863      7864
      7863      7865      7865      7866      7865      7867      7867      7868
      7867      7869      7867      7870      7870      7871      7870      7872
      7870      7873      7873      7874      7873      7875      7873      7876
      7876      7877      7876      7878      7876      7879      7879      7880
      7879      7881      7879      7882      7882      7883      7882      7884
      7882      7885      7885      7886      7885      7887      7885      7888
      7888      7889      7888      7890      7888      7891      7839      7840
      7840      7842      7840      7841      7842      7843      7842      7844
      7842      7892      7892      7893      7892      7894      7892      7895
      7895      7896      7895      7897      7895      7898      7898      7899
      7898      7900      7898      7901      7901      7902      7901      7903
      7901      7904      7904      7905      7904      7906      7904      7907
      7907      7908      7907      7909      7907      7910      7910      7911
      7910      7912      7910      7913      7913      7914      7913      7915
      7913      7916      7916      7917      7916      7918      7916      7919
      7919      7920      7919      7921      7919      7922      7922      7923
      7922      7924      7922      7925      7925      7926      7925      7927
      7925      7928      7928      7929      7928      7930      7928      7931
      7931      7932      7931      7933      7931      7934      7935      7939
      7935      7943      7935      7947      7939      7940      7939      7941
      7939      7942      7943      7944      7943      7945      7943      7946
      7947      7948      7947      7949      7947      7950      7935      7936
      7936      7937      7936      7938      7936      7951      7951      7952
      7951      7953      7951      7957      7958      7959      7957      7954
      7954      7958      7954      7955      7954      7956      7959      7960
      7959      7961      7959      7962      7962      7963      7962      7970
      7962      7964      7970      7971      7970      7972      7970      7973
      7964      7965      7965      7967      7965      7966      7967      7968
      7967      7969      7967      7979      7979      7980      7979      7981
      7979      7982      7982      7983      7982      7984      7982      7985
      7985      7986      7985      7987      7985      7988      7988      7989
      7988      7990      7988      7991      7991      7992      7991      7993
      7991      7994      7994      7995      7994      7996      7994      7997
      7997      7998      7997      7999      7999      8000      7999      8001
      8001      8002      8001      8003      8001      8004      8004      8005
      8004      8006      8004      8007      8007      8008      8007      8009
      8007      8010      8010      8011      8010      8012      8010      8013
      8013      8014      8013      8015      8013      8016      8016      8017
      8016      8018      8016      8019      8019      8020      8019      8021
      8019      8022      8022      8023      8022      8024      8022      8025
      7973      7974      7974      7976      7974      7975      7976      7977
      7976      7978      7976      8026      8026      8027      8026      8028
      8026      8029      8029      8030      8029      8031      8029      8032
      8032      8033      8032      8034      8032      8035      8035      8036
      8035      8037      8035      8038      8038      8039      8038      8040
      8038      8041      8041      8042      8041      8043      8041      8044
      8044      8045      8044      8046      8044      8047      8047      8048
      8047      8049      8047      8050      8050      8051      8050      8052
      8050      8053      8053      8054      8053      8055      8053      8056
      8056      8057      8056      8058      8056      8059      8059      8060
      8059      8061      8059      8062      8062      8063      8062      8064
      8062      8065      8065      8066      8065      8067      8065      8068
      8069      8073      8069      8077      8069      8081      8073      8074
      8073      8075      8073      8076      8077      8078      8077      8079
      8077      8080      8081      8082      8081      8083      8081      8084
      8069      8070      8070      8071      8070      8072      8070      8085
      8085      8086      8085      8087      8085      8091      8092      8093
      8091      8088      8088      8092      8088      8089      8088      8090
      8093      8094      8093      8095      8093      8096      8096      8097
      8096      8104      8096      8098      8104      8105      8104      8106
      8104      8107      8098      8099      8099      8101      8099      8100
      8101      8102      8101      8103      8101      8113      8113      8114
      8113      8115      8113      8116      8116      8117      8116      8118
      8116      8119      8119      8120      8119      8121      8119      8122
      8122      8123      8122      8124      8122      8125      8125      8126
      8125      8127      8125      8128      8128      8129      8128      8130
      8128      8131      8131      8132      8131      8133      8133      8134
      8133      8135      8135      8136      8135      8137      8135      8138
      8138      8139      8138      8140      8138      8141      8141      8142
      8141      8143      8141      8144      8144      8145      8144      8146
      8144      8147      8147      8148      8147      8149      8147      8150
      8150      8151      8150      8152      8150      8153      8153      8154
      8153      8155      8153      8156      8156      8157      8156      8158
      8156      8159      8107      8108      8108      8110      8108      8109
      8110      8111      8110      8112      8110      8160      8160      8161
      8160      8162      8160      8163      8163      8164      8163      8165
      8163      8166      8166      8167      8166      8168      8166      8169
      8169      8170      8169      8171      8169      8172      8172      8173
      8172      8174      8172      8175      8175      8176      8175      8177
      8175      8178      8178      8179      8178      8180      8178      8181
      8181      8182      8181      8183      8181      8184      8184      8185
      8184      8186      8184      8187      8187      8188      8187      8189
      8187      8190      8190      8191      8190      8192      8190      8193
      8193      8194      8193      8195      8193      8196      8196      8197
      8196      8198      8196      8199      8199      8200      8199      8201
      8199      8202      8203      8207      8203      8211      8203      8215
      8207      8208      8207      8209      8207      8210      8211      8212
      8211      8213      8211      8214      8215      8216      8215      8217
      8215      8218      8203      8204      8204      8205      8204      8206
      8204      8219      8219      8220      8219      8221      8219      8225
      8226      8227      8225      8222      8222      8226      8222      8223
      8222      8224      8227      8228      8227      8229      8227      8230
      8230      8231      8230      8238      8230      8232      8238      8239
      8238      8240      8238      8241      8232      8233      8233      8235
      8233      8234      8235      8236      8235      8237      8235      8247
      8247      8248      8247      8249      8247      8250      8250      8251
      8250      8252      8250      8253      8253      8254      8253      8255
      8253      8256      8256      8257      8256      8258      8256      8259
      8259      8260      8259      8261      8259      8262      8262      8263
      8262      8264      8262      8265      8265      8266      8265      8267
      8267      8268      8267      8269      8269      8270      8269      8271
      8269      8272      8272      8273      8272      8274      8272      8275
      8275      8276      8275      8277      8275      8278      8278      8279
      8278      8280      8278      8281      8281      8282      8281      8283
      8281      8284      8284      8285      8284      8286      8284      8287
      8287      8288      8287      8289      8287      8290      8290      8291
      8290      8292      8290      8293      8241      8242      8242      8244
      8242      8243      8244      8245      8244      8246      8244      8294
      8294      8295      8294      8296      8294      8297      8297      8298
      8297      8299      8297      8300      8300      8301      8300      8302
      8300      8303      8303      8304      8303      8305      8303      8306
      8306      8307      8306      8308      8306      8309      8309      8310
      8309      8311      8309      8312      8312      8313      8312      8314
      8312      8315      8315      8316      8315      8317      8315      8318
      8318      8319      8318      8320      8318      8321      8321      8322
      8321      8323      8321      8324      8324      8325      8324      8326
      8324      8327      8327      8328      8327      8329      8327      8330
      8330      8331      8330      8332      8330      8333      8333      8334
      8333      8335      8333      8336      8337      8341      8337      8345
      8337      8349      8341      8342      8341      8343      8341      8344
      8345      8346      8345      8347      8345      8348      8349      8350
      8349      8351      8349      8352      8337      8338      8338      8339
      8338      8340      8338      8353      8353      8354      8353      8355
      8353      8359      8360      8361      8359      8356      8356      8360
      8356      8357      8356      8358      8361      8362      8361      8363
      8361      8364      8364      8365      8364      8372      8364      8366
      8372      8373      8372      8374      8372      8375      8366      8367
      8367      8369      8367      8368      8369      8370      8369      8371
      8369      8381      8381      8382      8381      8383      8381      8384
      8384      8385      8384      8386      8384      8387      8387      8388
      8387      8389      8387      8390      8390      8391      8390      8392
      8390      8393      8393      8394      8393      8395      8393      8396
      8396      8397      8396      8398      8396      8399      8399      8400
      8399      8401      8401      8402      8401      8403      8403      8404
      8403      8405      8403      8406      8406      8407      8406      8408
      8406      8409      8409      8410      8409      8411      8409      8412
      8412      8413      8412      8414      8412      8415      8415      8416
      8415      8417      8415      8418      8418      8419      8418      8420
      8418      8421      8421      8422      8421      8423      8421      8424
      8424      8425      8424      8426      8424      8427      8375      8376
      8376      8378      8376      8377      8378      8379      8378      8380
      8378      8428      8428      8429      8428      8430      8428      8431
      8431      8432      8431      8433      8431      8434      8434      8435
      8434      8436      8434      8437      8437      8438      8437      8439
      8437      8440      8440      8441      8440      8442      8440      8443
      8443      8444      8443      8445      8443      8446      8446      8447
      8446      8448      8446      8449      8449      8450      8449      8451
      8449      8452      8452      8453      8452      8454      8452      8455
      8455      8456      8455      8457      8455      8458      8458      8459
      8458      8460      8458      8461      8461      8462      8461      8463
      8461      8464      8464      8465      8464      8466      8464      8467
      8467      8468      8467      8469      8467      8470      8471      8472
      8471      8473      8471      8474      8471      8475      8479      8477
      8477      8475      8477      8478      8475      8476      8475      8480
      8488      8487      8480      8481      8480      8482      8480      8486
      8486      8483      8483      8487      8483      8484      8483      8485
      8488      8489      8488      8490      8488      8491      8491      8492
      8491      8499      8491      8493      8499      8500      8499      8501
      8499      8502      8493      8494      8494      8496      8494      8495
      8496      8497      8496      8498      8496      8508      8508      8509
      8508      8510      8508      8511      8511      8512      8511      8513
      8511      8514      8514      8515      8514      8516      8514      8517
      8517      8518      8517      8519      8517      8520      8520      8521
      8520      8522      8520      8523      8523      8524      8523      8525
      8523      8526      8526      8527      8526      8528      8528      8529
      8528      8530      8530      8531      8530      8532      8530      8533
      8533      8534      8533      8535      8533      8536      8536      8537
      8536      8538      8536      8539      8539      8540      8539      8541
      8539      8542      8542      8543      8542      8544      8542      8545
      8545      8546      8545      8547      8545      8548      8548      8549
      8548      8550      8548      8551      8551      8552      8551      8553
      8551      8554      8502      8503      8503      8505      8503      8504
      8505      8506      8505      8507      8505      8555      8555      8556
      8555      8557      8555      8558      8558      8559      8558      8560
      8558      8561      8561      8562      8561      8563      8561      8564
      8564      8565      8564      8566      8564      8567      8567      8568
      8567      8569      8567      8570      8570      8571      8570      8572
      8570      8573      8573      8574      8573      8575      8573      8576
      8576      8577      8576      8578      8576      8579      8579      8580
      8579      8581      8579      8582      8582      8583      8582      8584
      8582      8585      8585      8586      8585      8587      8585      8588
      8588      8589      8588      8590      8588      8591      8591      8592
      8591      8593      8591      8594      8594      8595      8594      8596
      8594      8597      8598      8602      8598      8606      8598      8610
      8602      8603      8602      8604      8602      8605      8606      8607
      8606      8608      8606      8609      8610      8611      8610      8612
      8610      8613      8598      8599      8599      8600      8599      8601
      8599      8614      8614      8615      8614      8616      8614      8620
      8621      8622      8620      8617      8617      8621      8617      8618
      8617      8619      8622      8623      8622      8624      8622      8625
      8625      8626      8625      8633      8625      8627      8633      8634
      8633      8635      8633      8636      8627      8628      8628      8630
      8628      8629      8630      8631      8630      8632      8630      8642
      8642      8643      8642      8644      8642      8645      8645      8646
      8645      8647      8645      8648      8648      8649      8648      8650
      8648      8651      8651      8652      8651      8653      8651      8654
      8654      8655      8654      8656      8654      8657      8657      8658
      8657      8659      8657      8660      8660      8661      8660      8662
      8662      8663      8662      8664      8664      8665      8664      8666
      8664      8667      8667      8668      8667      8669      8667      8670
      8670      8671      8670      8672      8670      8673      8673      8674
      8673      8675      8673      8676      8676      8677      8676      8678
      8676      8679      8679      8680      8679      8681      8679      8682
      8682      8683      8682      8684      8682      8685      8685      8686
      8685      8687      8685      8688      8636      8637      8637      8639
      8637      8638      8639      8640      8639      8641      8639      8689
      8689      8690      8689      8691      8689      8692      8692      8693
      8692      8694      8692      8695      8695      8696      8695      8697
      8695      8698      8698      8699      8698      8700      8698      8701
      8701      8702      8701      8703      8701      8704      8704      8705
      8704      8706      8704      8707      8707      8708      8707      8709
      8707      8710      8710      8711      8710      8712      8710      8713
      8713      8714      8713      8715      8713      8716      8716      8717
      8716      8718      8716      8719      8719      8720      8719      8721
      8719      8722      8722      8723      8722      8724      8722      8725
      8725      8726      8725      8727      8725      8728      8728      8729
      8728      8730      8728      8731      8732      8736      8732      8740
      8732      8744      8736      8737      8736      8738      8736      8739
      8740      8741      8740      8742      8740      8743      8744      8745
      8744      8746      8744      8747      8732      8733      8733      8734
      8733      8735      8733      8748      8748      8749      8748      8750
      8748      8754      8755      8756      8754      8751      8751      8755
      8751      8752      8751      8753      8756      8757      8756      8758
      8756      8759      8759      8760      8759      8767      8759      8761
      8767      8768      8767      8769      8767      8770      8761      8762
      8762      8764      8762      8763      8764      8765      8764      8766
      8764      8776      8776      8777      8776      8778      8776      8779
      8779      8780      8779      8781      8779      8782      8782      8783
      8782      8784      8782      8785      8785      8786      8785      8787
      8785      8788      8788      8789      8788      8790      8788      8791
      8791      8792      8791      8793      8791      8794      8794      8795
      8794      8796      8796      8797      8796      8798      8798      8799
      8798      8800      8798      8801      8801      8802      8801      8803
      8801      8804      8804      8805      8804      8806      8804      8807
      8807      8808      8807      8809      8807      8810      8810      8811
      8810      8812      8810      8813      8813      8814      8813      8815
      8813      8816      8816      8817      8816      8818      8816      8819
      8819      8820      8819      8821      8819      8822      8770      8771
      8771      8773      8771      8772      8773      8774      8773      8775
      8773      8823      8823      8824      8823      8825      8823      8826
      8826      8827      8826      8828      8826      8829      8829      8830
      8829      8831      8829      8832      8832      8833      8832      8834
      8832      8835      8835      8836      8835      8837      8835      8838
      8838      8839      8838      8840      8838      8841      8841      8842
      8841      8843      8841      8844      8844      8845      8844      8846
      8844      8847      8847      8848      8847      8849      8847      8850
      8850      8851      8850      8852      8850      8853      8853      8854
      8853      8855      8853      8856      8856      8857      8856      8858
      8856      8859      8859      8860      8859      8861      8859      8862
      8862      8863      8862      8864      8862      8865      8866      8870
      8866      8874      8866      8878      8870      8871      8870      8872
      8870      8873      8874      8875      8874      8876      8874      8877
      8878      8879      8878      8880      8878      8881      8866      8867
      8867      8868      8867      8869      8867      8882      8882      8883
      8882      8884      8882      8888      8889      8890      8888      8885
      8885      8889      8885      8886      8885      8887      8890      8891
      8890      8892      8890      8893      8893      8894      8893      8901
      8893      8895      8901      8902      8901      8903      8901      8904
      8895      8896      8896      8898      8896      8897      8898      8899
      8898      8900      8898      8910      8910      8911      8910      8912
      8910      8913      8913      8914      8913      8915      8913      8916
      8916      8917      8916      8918      8916      8919      8919      8920
      8919      8921      8919      8922      8922      8923      8922      8924
      8922      8925      8925      8926      8925      8927      8925      8928
      8928      8929      8928      8930      8930      8931      8930      8932
      8932      8933      8932      8934      8932      8935      8935      8936
      8935      8937      8935      8938      8938      8939      8938      8940
      8938      8941      8941      8942      8941      8943      8941      8944
      8944      8945      8944      8946      8944      8947      8947      8948
      8947      8949      8947      8950      8950      8951      8950      8952
      8950      8953      8953      8954      8953      8955      8953      8956
      8904      8905      8905      8907      8905      8906      8907      8908
      8907      8909      8907      8957      8957      8958      8957      8959
      8957      8960      8960      8961      8960      8962      8960      8963
      8963      8964      8963      8965      8963      8966      8966      8967
      8966      8968      8966      8969      8969      8970      8969      8971
      8969      8972      8972      8973      8972      8974      8972      8975
      8975      8976      8975      8977      8975      8978      8978      8979
      8978      8980      8978      8981      8981      8982      8981      8983
      8981      8984      8984      8985      8984      8986      8984      8987
      8987      8988      8987      8989      8987      8990      8990      8991
      8990      8992      8990      8993      8993      8994      8993      8995
      8993      8996      8996      8997      8996      8998      8996      8999
      9000      9001      9000      9002      9000      9003      9000      9004
      9008      9006      9006      9004      9006      9007      9004      9005
      9004      9009      9017      9016      9009      9010      9009      9011
      9009      9015      9015      9012      9012      9016      9012      9013
      9012      9014      9017      9018      9017      9019      9017      9020
      9020      9021      9020      9028      9020      9022      9028      9029
      9028      9030      9028      9031      9022      9023      9023      9025
      9023      9024      9025      9026      9025      9027      9025      9037
      9037      9038      9037      9039      9037      9040      9040      9041
      9040      9042      9040      9043      9043      9044      9043      9045
      9043      9046      9046      9047      9046      9048      9046      9049
      9049      9050      9049      9051      9049      9052      9052      9053
      9052      9054      9052      9055      9055      9056      9055      9057
      9057      9058      9057      9059      9059      9060      9059      9061
      9059      9062      9062      9063      9062      9064      9062      9065
      9065      9066      9065      9067      9065      9068      9068      9069
      9068      9070      9068      9071      9071      9072      9071      9073
      9071      9074      9074      9075      9074      9076      9074      9077
      9077      9078      9077      9079      9077      9080      9080      9081
      9080      9082      9080      9083      9031      9032      9032      9034
      9032      9033      9034      9035      9034      9036      9034      9084
      9084      9085      9084      9086      9084      9087      9087      9088
      9087      9089      9087      9090      9090      9091      9090      9092
      9090      9093      9093      9094      9093      9095      9093      9096
      9096      9097      9096      9098      9096      9099      9099      9100
      9099      9101      9099      9102      9102      9103      9102      9104
      9102      9105      9105      9106      9105      9107      9105      9108
      9108      9109      9108      9110      9108      9111      9111      9112
      9111      9113      9111      9114      9114      9115      9114      9116
      9114      9117      9117      9118      9117      9119      9117      9120
      9120      9121      9120      9122      9120      9123      9123      9124
      9123      9125      9123      9126      9127      9128      9127      9129
      9127      9130      9127      9131      9135      9133      9133      9131
      9133      9134      9131      9132      9131      9136      9144      9143
      9136      9137      9136      9138      9136      9142      9142      9139
      9139      9143      9139      9140      9139      9141      9144      9145
      9144      9146      9144      9147      9147      9148      9147      9155
      9147      9149      9155      9156      9155      9157      9155      9158
      9149      9150      9150      9152      9150      9151      9152      9153
      9152      9154      9152      9164      9164      9165      9164      9166
      9164      9167      9167      9168      9167      9169      9167      9170
      9170      9171      9170      9172      9170      9173      9173      9174
      9173      9175      9173      9176      9176      9177      9176      9178
      9176      9179      9179      9180      9179      9181      9179      9182
      9182      9183      9182      9184      9184      9185      9184      9186
      9186      9187      9186      9188      9186      9189      9189      9190
      9189      9191      9189      9192      9192      9193      9192      9194
      9192      9195      9195      9196      9195      9197      9195      9198
      9198      9199      9198      9200      9198      9201      9201      9202
      9201      9203      9201      9204      9204      9205      9204      9206
      9204      9207      9207      9208      9207      9209      9207      9210
      9158      9159      9159      9161      9159      9160      9161      9162
      9161      9163      9161      9211      9211      9212      9211      9213
      9211      9214      9214      9215      9214      9216      9214      9217
      9217      9218      9217      9219      9217      9220      9220      9221
      9220      9222      9220      9223      9223      9224      9223      9225
      9223      9226      9226      9227      9226      9228      9226      9229
      9229      9230      9229      9231      9229      9232      9232      9233
      9232      9234      9232      9235      9235      9236      9235      9237
      9235      9238      9238      9239      9238      9240      9238      9241
      9241      9242      9241      9243      9241      9244      9244      9245
      9244      9246      9244      9247      9247      9248      9247      9249
      9247      9250      9250      9251      9250      9252      9250      9253
      9254      9258      9254      9262      9254      9266      9258      9259
      9258      9260      9258      9261      9262      9263      9262      9264
      9262      9265      9266      9267      9266      9268      9266      9269
      9254      9255      9255      9256      9255      9257      9255      9270
      9270      9271      9270      9272      9270      9276      9277      9278
      9276      9273      9273      9277      9273      9274      9273      9275
      9278      9279      9278      9280      9278      9281      9281      9282
      9281      9289      9281      9283      9289      9290      9289      9291
      9289      9292      9283      9284      9284      9286      9284      9285
      9286      9287      9286      9288      9286      9298      9298      9299
      9298      9300      9298      9301      9301      9302      9301      9303
      9301      9304      9304      9305      9304      9306      9304      9307
      9307      9308      9307      9309      9307      9310      9310      9311
      9310      9312      9310      9313      9313      9314      9313      9315
      9313      9316      9316      9317      9316      9318      9318      9319
      9318      9320      9320      9321      9320      9322      9320      9323
      9323      9324      9323      9325      9323      9326      9326      9327
      9326      9328      9326      9329      9329      9330      9329      9331
      9329      9332      9332      9333      9332      9334      9332      9335
      9335      9336      9335      9337      9335      9338      9338      9339
      9338      9340      9338      9341      9341      9342      9341      9343
      9341      9344      9292      9293      9293      9295      9293      9294
      9295      9296      9295      9297      9295      9345      9345      9346
      9345      9347      9345      9348      9348      9349      9348      9350
      9348      9351      9351      9352      9351      9353      9351      9354
      9354      9355      9354      9356      9354      9357      9357      9358
      9357      9359      9357      9360      9360      9361      9360      9362
      9360      9363      9363      9364      9363      9365      9363      9366
      9366      9367      9366      9368      9366      9369      9369      9370
      9369      9371      9369      9372      9372      9373      9372      9374
      9372      9375      9375      9376      9375      9377      9375      9378
      9378      9379      9378      9380      9378      9381      9381      9382
      9381      9383      9381      9384      9384      9385      9384      9386
      9384      9387      9388      9392      9388      9396      9388      9400
      9392      9393      9392      9394      9392      9395      9396      9397
      9396      9398      9396      9399      9400      9401      9400      9402
      9400      9403      9388      9389      9389      9390      9389      9391
      9389      9404      9404      9405      9404      9406      9404      9410
      9411      9412      9410      9407      9407      9411      9407      9408
      9407      9409      9412      9413      9412      9414      9412      9415
      9415      9416      9415      9423      9415      9417      9423      9424
      9423      9425      9423      9426      9417      9418      9418      9420
      9418      9419      9420      9421      9420      9422      9420      9432
      9432      9433      9432      9434      9432      9435      9435      9436
      9435      9437      9435      9438      9438      9439      9438      9440
      9438      9441      9441      9442      9441      9443      9441      9444
      9444      9445      9444      9446      9444      9447      9447      9448
      9447      9449      9447      9450      9450      9451      9450      9452
      9452      9453      9452      9454      9454      9455      9454      9456
      9454      9457      9457      9458      9457      9459      9457      9460
      9460      9461      9460      9462      9460      9463      9463      9464
      9463      9465      9463      9466      9466      9467      9466      9468
      9466      9469      9469      9470      9469      9471      9469      9472
      9472      9473      9472      9474      9472      9475      9475      9476
      9475      9477      9475      9478      9426      9427      9427      9429
      9427      9428      9429      9430      9429      9431      9429      9479
      9479      9480      9479      9481      9479      9482      9482      9483
      9482      9484      9482      9485      9485      9486      9485      9487
      9485      9488      9488      9489      9488      9490      9488      9491
      9491      9492      9491      9493      9491      9494      9494      9495
      9494      9496      9494      9497      9497      9498      9497      9499
      9497      9500      9500      9501      9500      9502      9500      9503
      9503      9504      9503      9505      9503      9506      9506      9507
      9506      9508      9506      9509      9509      9510      9509      9511
      9509      9512      9512      9513      9512      9514      9512      9515
      9515      9516      9515      9517      9515      9518      9518      9519
      9518      9520      9518      9521      9522      9526      9522      9530
      9522      9534      9526      9527      9526      9528      9526      9529
      9530      9531      9530      9532      9530      9533      9534      9535
      9534      9536      9534      9537      9522      9523      9523      9524
      9523      9525      9523      9538      9538      9539      9538      9540
      9538      9544      9545      9546      9544      9541      9541      9545
      9541      9542      9541      9543      9546      9547      9546      9548
      9546      9549      9549      9550      9549      9557      9549      9551
      9557      9558      9557      9559      9557      9560      9551      9552
      9552      9554      9552      9553      9554      9555      9554      9556
      9554      9566      9566      9567      9566      9568      9566      9569
      9569      9570      9569      9571      9569      9572      9572      9573
      9572      9574      9572      9575      9575      9576      9575      9577
      9575      9578      9578      9579      9578      9580      9578      9581
      9581      9582      9581      9583      9581      9584      9584      9585
      9584      9586      9586      9587      9586      9588      9588      9589
      9588      9590      9588      9591      9591      9592      9591      9593
      9591      9594      9594      9595      9594      9596      9594      9597
      9597      9598      9597      9599      9597      9600      9600      9601
      9600      9602      9600      9603      9603      9604      9603      9605
      9603      9606      9606      9607      9606      9608      9606      9609
      9609      9610      9609      9611      9609      9612      9560      9561
      9561      9563      9561      9562      9563      9564      9563      9565
      9563      9613      9613      9614      9613      9615      9613      9616
      9616      9617      9616      9618      9616      9619      9619      9620
      9619      9621      9619      9622      9622      9623      9622      9624
      9622      9625      9625      9626      9625      9627      9625      9628
      9628      9629      9628      9630      9628      9631      9631      9632
      9631      9633      9631      9634      9634      9635      9634      9636
      9634      9637      9637      9638      9637      9639      9637      9640
      9640      9641      9640      9642      9640      9643      9643      9644
      9643      9645      9643      9646      9646      9647      9646      9648
      9646      9649      9649      9650      9649      9651      9649      9652
      9652      9653      9652      9654      9652      9655      9656      9660
      9656      9664      9656      9668      9660      9661      9660      9662
      9660      9663      9664      9665      9664      9666      9664      9667
      9668      9669      9668      9670      9668      9671      9656      9657
      9657      9658      9657      9659      9657      9672      9672      9673
      9672      9674      9672      9678      9679      9680      9678      9675
      9675      9679      9675      9676      9675      9677      9680      9681
      9680      9682      9680      9683      9683      9684      9683      9691
      9683      9685      9691      9692      9691      9693      9691      9694
      9685      9686      9686      9688      9686      9687      9688      9689
      9688      9690      9688      9700      9700      9701      9700      9702
      9700      9703      9703      9704      9703      9705      9703      9706
      9706      9707      9706      9708      9706      9709      9709      9710
      9709      9711      9709      9712      9712      9713      9712      9714
      9712      9715      9715      9716      9715      9717      9715      9718
      9718      9719      9718      9720      9720      9721      9720      9722
      9722      9723      9722      9724      9722      9725      9725      9726
      9725      9727      9725      9728      9728      9729      9728      9730
      9728      9731      9731      9732      9731      9733      9731      9734
      9734      9735      9734      9736      9734      9737      9737      9738
      9737      9739      9737      9740      9740      9741      9740      9742
      9740      9743      9743      9744      9743      9745      9743      9746
      9694      9695      9695      9697      9695      9696      9697      9698
      9697      9699      9697      9747      9747      9748      9747      9749
      9747      9750      9750      9751      9750      9752      9750      9753
      9753      9754      9753      9755      9753      9756      9756      9757
      9756      9758      9756      9759      9759      9760      9759      9761
      9759      9762      9762      9763      9762      9764      9762      9765
      9765      9766      9765      9767      9765      9768      9768      9769
      9768      9770      9768      9771      9771      9772      9771      9773
      9771      9774      9774      9775      9774      9776      9774      9777
      9777      9778      9777      9779      9777      9780      9780      9781
      9780      9782      9780      9783      9783      9784      9783      9785
      9783      9786      9786      9787      9786      9788      9786      9789
      9790      9794      9790      9798      9790      9802      9794      9795
      9794      9796      9794      9797      9798      9799      9798      9800
      9798      9801      9802      9803      9802      9804      9802      9805
      9790      9791      9791      9792      9791      9793      9791      9806
      9806      9807      9806      9808      9806      9812      9813      9814
      9812      9809      9809      9813      9809      9810      9809      9811
      9814      9815      9814      9816      9814      9817      9817      9818
      9817      9825      9817      9819      9825      9826      9825      9827
      9825      9828      9819      9820      9820      9822      9820      9821
      9822      9823      9822      9824      9822      9834      9834      9835
      9834      9836      9834      9837      9837      9838      9837      9839
      9837      9840      9840      9841      9840      9842      9840      9843
      9843      9844      9843      9845      9843      9846      9846      9847
      9846      9848      9846      9849      9849      9850      9849      9851
      9849      9852      9852      9853      9852      9854      9854      9855
      9854      9856      9856      9857      9856      9858      9856      9859
      9859      9860      9859      9861      9859      9862      9862      9863
      9862      9864      9862      9865      9865      9866      9865      9867
      9865      9868      9868      9869      9868      9870      9868      9871
      9871      9872      9871      9873      9871      9874      9874      9875
      9874      9876      9874      9877      9877      9878      9877      9879
      9877      9880      9828      9829      9829      9831      9829      9830
      9831      9832      9831      9833      9831      9881      9881      9882
      9881      9883      9881      9884      9884      9885      9884      9886
      9884      9887      9887      9888      9887      9889      9887      9890
      9890      9891      9890      9892      9890      9893      9893      9894
      9893      9895      9893      9896      9896      9897      9896      9898
      9896      9899      9899      9900      9899      9901      9899      9902
      9902      9903      9902      9904      9902      9905      9905      9906
      9905      9907      9905      9908      9908      9909      9908      9910
      9908      9911      9911      9912      9911      9913      9911      9914
      9914      9915      9914      9916      9914      9917      9917      9918
      9917      9919      9917      9920      9920      9921      9920      9922
      9920      9923      9924      9928      9924      9932      9924      9936
      9928      9929      9928      9930      9928      9931      9932      9933
      9932      9934      9932      9935      9936      9937      9936      9938
      9936      9939      9924      9925      9925      9926      9925      9927
      9925      9940      9940      9941      9940      9942      9940      9946
      9947      9948      9946      9943      9943      9947      9943      9944
      9943      9945      9948      9949      9948      9950      9948      9951
      9951      9952      9951      9959      9951      9953      9959      9960
      9959      9961      9959      9962      9953      9954      9954      9956
      9954      9955      9956      9957      9956      9958      9956      9968
      9968      9969      9968      9970      9968      9971      9971      9972
      9971      9973      9971      9974      9974      9975      9974      9976
      9974      9977      9977      9978      9977      9979      9977      9980
      9980      9981      9980      9982      9980      9983      9983      9984
      9983      9985      9983      9986      9986      9987      9986      9988
      9988      9989      9988      9990      9990      9991      9990      9992
      9990      9993      9993      9994      9993      9995      9993      9996
      9996      9997      9996      9998      9996      9999      9999     10000
      9999     10001      9999     10002     10002     10003     10002     10004
     10002     10005     10005     10006     10005     10007     10005     10008
     10008     10009     10008     10010     10008     10011     10011     10012
     10011     10013     10011     10014      9962      9963      9963      9965
      9963      9964      9965      9966      9965      9967      9965     10015
     10015     10016     10015     10017     10015     10018     10018     10019
     10018     10020     10018     10021     10021     10022     10021     10023
     10021     10024     10024     10025     10024     10026     10024     10027
     10027     10028     10027     10029     10027     10030     10030     10031
     10030     10032     10030     10033     10033     10034     10033     10035
     10033     10036     10036     10037     10036     10038     10036     10039
     10039     10040     10039     10041     10039     10042     10042     10043
     10042     10044     10042     10045     10045     10046     10045     10047
     10045     10048     10048     10049     10048     10050     10048     10051
     10051     10052     10051     10053     10051     10054     10054     10055
     10054     10056     10054     10057     10058     10059     10058     10060
     10058     10061     10058     10062     10066     10064     10064     10062
     10064     10065     10062     10063     10062     10067     10075     10074
     10067     10068     10067     10069     10067     10073     10073     10070
     10070     10074     10070     10071     10070     10072     10075     10076
     10075     10077     10075     10078     10078     10079     10078     10086
     10078     10080     10086     10087     10086     10088     10086     10089
     10080     10081     10081     10083     10081     10082     10083     10084
     10083     10085     10083     10095     10095     10096     10095     10097
     10095     10098     10098     10099     10098     10100     10098     10101
     10101     10102     10101     10103     10101     10104     10104     10105
     10104     10106     10104     10107     10107     10108     10107     10109
     10107     10110     10110     10111     10110     10112     10110     10113
     10113     10114     10113     10115     10115     10116     10115     10117
     10117     10118     10117     10119     10117     10120     10120     10121
     10120     10122     10120     10123     10123     10124     10123     10125
     10123     10126     10126     10127     10126     10128     10126     10129
     10129     10130     10129     10131     10129     10132     10132     10133
     10132     10134     10132     10135     10135     10136     10135     10137
     10135     10138     10138     10139     10138     10140     10138     10141
     10089     10090     10090     10092     10090     10091     10092     10093
     10092     10094     10092     10142     10142     10143     10142     10144
     10142     10145     10145     10146     10145     10147     10145     10148
     10148     10149     10148     10150     10148     10151     10151     10152
     10151     10153     10151     10154     10154     10155     10154     10156
     10154     10157     10157     10158     10157     10159     10157     10160
     10160     10161     10160     10162     10160     10163     10163     10164
     10163     10165     10163     10166     10166     10167     10166     10168
     10166     10169     10169     10170     10169     10171     10169     10172
     10172     10173     10172     10174     10172     10175     10175     10176
     10175     10177     10175     10178     10178     10179     10178     10180
     10178     10181     10181     10182     10181     10183     10181     10184
     10185     10189     10185     10193     10185     10197     10189     10190
     10189     10191     10189     10192     10193     10194     10193     10195
     10193     10196     10197     10198     10197     10199     10197     10200
     10185     10186     10186     10187     10186     10188     10186     10201
     10201     10202     10201     10203     10201     10207     10208     10209
     10207     10204     10204     10208     10204     10205     10204     10206
     10209     10210     10209     10211     10209     10212     10212     10213
     10212     10220     10212     10214     10220     10221     10220     10222
     10220     10223     10214     10215     10215     10217     10215     10216
     10217     10218     10217     10219     10217     10229     10229     10230
     10229     10231     10229     10232     10232     10233     10232     10234
     10232     10235     10235     10236     10235     10237     10235     10238
     10238     10239     10238     10240     10238     10241     10241     10242
     10241     10243     10241     10244     10244     10245     10244     10246
     10244     10247     10247     10248     10247     10249     10249     10250
     10249     10251     10251     10252     10251     10253     10251     10254
     10254     10255     10254     10256     10254     10257     10257     10258
     10257     10259     10257     10260     10260     10261     10260     10262
     10260     10263     10263     10264     10263     10265     10263     10266
     10266     10267     10266     10268     10266     10269     10269     10270
     10269     10271     10269     10272     10272     10273     10272     10274
     10272     10275     10223     10224     10224     10226     10224     10225
     10226     10227     10226     10228     10226     10276     10276     10277
     10276     10278     10276     10279     10279     10280     10279     10281
     10279     10282     10282     10283     10282     10284     10282     10285
     10285     10286     10285     10287     10285     10288     10288     10289
     10288     10290     10288     10291     10291     10292     10291     10293
     10291     10294     10294     10295     10294     10296     10294     10297
     10297     10298     10297     10299     10297     10300     10300     10301
     10300     10302     10300     10303     10303     10304     10303     10305
     10303     10306     10306     10307     10306     10308     10306     10309
     10309     10310     10309     10311     10309     10312     10312     10313
     10312     10314     10312     10315     10315     10316     10315     10317
     10315     10318     10319     10320     10319     10321     10319     10322
     10319     10323     10327     10325     10325     10323     10325     10326
     10323     10324     10323     10328     10336     10335     10328     10329
     10328     10330     10328     10334     10334     10331     10331     10335
     10331     10332     10331     10333     10336     10337     10336     10338
     10336     10339     10339     10340     10339     10347     10339     10341
     10347     10348     10347     10349     10347     10350     10341     10342
     10342     10344     10342     10343     10344     10345     10344     10346
     10344     10356     10356     10357     10356     10358     10356     10359
     10359     10360     10359     10361     10359     10362     10362     10363
     10362     10364     10362     10365     10365     10366     10365     10367
     10365     10368     10368     10369     10368     10370     10368     10371
     10371     10372     10371     10373     10371     10374     10374     10375
     10374     10376     10376     10377     10376     10378     10378     10379
     10378     10380     10378     10381     10381     10382     10381     10383
     10381     10384     10384     10385     10384     10386     10384     10387
     10387     10388     10387     10389     10387     10390     10390     10391
     10390     10392     10390     10393     10393     10394     10393     10395
     10393     10396     10396     10397     10396     10398     10396     10399
     10399     10400     10399     10401     10399     10402     10350     10351
     10351     10353     10351     10352     10353     10354     10353     10355
     10353     10403     10403     10404     10403     10405     10403     10406
     10406     10407     10406     10408     10406     10409     10409     10410
     10409     10411     10409     10412     10412     10413     10412     10414
     10412     10415     10415     10416     10415     10417     10415     10418
     10418     10419     10418     10420     10418     10421     10421     10422
     10421     10423     10421     10424     10424     10425     10424     10426
     10424     10427     10427     10428     10427     10429     10427     10430
     10430     10431     10430     10432     10430     10433     10433     10434
     10433     10435     10433     10436     10436     10437     10436     10438
     10436     10439     10439     10440     10439     10441     10439     10442
     10442     10443     10442     10444     10442     10445     10446     10447
     10446     10448     10446     10449     10446     10450     10454     10452
     10452     10450     10452     10453     10450     10451     10450     10455
     10463     10462     10455     10456     10455     10457     10455     10461
     10461     10458     10458     10462     10458     10459     10458     10460
     10463     10464     10463     10465     10463     10466     10466     10467
     10466     10474     10466     10468     10474     10475     10474     10476
     10474     10477     10468     10469     10469     10471     10469     10470
     10471     10472     10471     10473     10471     10483     10483     10484
     10483     10485     10483     10486     10486     10487     10486     10488
     10486     10489     10489     10490     10489     10491     10489     10492
     10492     10493     10492     10494     10492     10495     10495     10496
     10495     10497     10495     10498     10498     10499     10498     10500
     10498     10501     10501     10502     10501     10503     10503     10504
     10503     10505     10505     10506     10505     10507     10505     10508
     10508     10509     10508     10510     10508     10511     10511     10512
     10511     10513     10511     10514     10514     10515     10514     10516
     10514     10517     10517     10518     10517     10519     10517     10520
     10520     10521     10520     10522     10520     10523     10523     10524
     10523     10525     10523     10526     10526     10527     10526     10528
     10526     10529     10477     10478     10478     10480     10478     10479
     10480     10481     10480     10482     10480     10530     10530     10531
     10530     10532     10530     10533     10533     10534     10533     10535
     10533     10536     10536     10537     10536     10538     10536     10539
     10539     10540     10539     10541     10539     10542     10542     10543
     10542     10544     10542     10545     10545     10546     10545     10547
     10545     10548     10548     10549     10548     10550     10548     10551
     10551     10552     10551     10553     10551     10554     10554     10555
     10554     10556     10554     10557     10557     10558     10557     10559
     10557     10560     10560     10561     10560     10562     10560     10563
     10563     10564     10563     10565     10563     10566     10566     10567
     10566     10568     10566     10569     10569     10570     10569     10571
     10569     10572     10573     10577     10573     10581     10573     10585
     10577     10578     10577     10579     10577     10580     10581     10582
     10581     10583     10581     10584     10585     10586     10585     10587
     10585     10588     10573     10574     10574     10575     10574     10576
     10574     10589     10589     10590     10589     10591     10589     10595
     10596     10597     10595     10592     10592     10596     10592     10593
     10592     10594     10597     10598     10597     10599     10597     10600
     10600     10601     10600     10608     10600     10602     10608     10609
     10608     10610     10608     10611     10602     10603     10603     10605
     10603     10604     10605     10606     10605     10607     10605     10617
     10617     10618     10617     10619     10617     10620     10620     10621
     10620     10622     10620     10623     10623     10624     10623     10625
     10623     10626     10626     10627     10626     10628     10626     10629
     10629     10630     10629     10631     10629     10632     10632     10633
     10632     10634     10632     10635     10635     10636     10635     10637
     10637     10638     10637     10639     10639     10640     10639     10641
     10639     10642     10642     10643     10642     10644     10642     10645
     10645     10646     10645     10647     10645     10648     10648     10649
     10648     10650     10648     10651     10651     10652     10651     10653
     10651     10654     10654     10655     10654     10656     10654     10657
     10657     10658     10657     10659     10657     10660     10660     10661
     10660     10662     10660     10663     10611     10612     10612     10614
     10612     10613     10614     10615     10614     10616     10614     10664
     10664     10665     10664     10666     10664     10667     10667     10668
     10667     10669     10667     10670     10670     10671     10670     10672
     10670     10673     10673     10674     10673     10675     10673     10676
     10676     10677     10676     10678     10676     10679     10679     10680
     10679     10681     10679     10682     10682     10683     10682     10684
     10682     10685     10685     10686     10685     10687     10685     10688
     10688     10689     10688     10690     10688     10691     10691     10692
     10691     10693     10691     10694     10694     10695     10694     10696
     10694     10697     10697     10698     10697     10699     10697     10700
     10700     10701     10700     10702     10700     10703     10703     10704
     10703     10705     10703     10706     10707     10711     10707     10715
     10707     10719     10711     10712     10711     10713     10711     10714
     10715     10716     10715     10717     10715     10718     10719     10720
     10719     10721     10719     10722     10707     10708     10708     10709
     10708     10710     10708     10723     10723     10724     10723     10725
     10723     10729     10730     10731     10729     10726     10726     10730
     10726     10727     10726     10728     10731     10732     10731     10733
     10731     10734     10734     10735     10734     10742     10734     10736
     10742     10743     10742     10744     10742     10745     10736     10737
     10737     10739     10737     10738     10739     10740     10739     10741
     10739     10751     10751     10752     10751     10753     10751     10754
     10754     10755     10754     10756     10754     10757     10757     10758
     10757     10759     10757     10760     10760     10761     10760     10762
     10760     10763     10763     10764     10763     10765     10763     10766
     10766     10767     10766     10768     10766     10769     10769     10770
     10769     10771     10771     10772     10771     10773     10773     10774
     10773     10775     10773     10776     10776     10777     10776     10778
     10776     10779     10779     10780     10779     10781     10779     10782
     10782     10783     10782     10784     10782     10785     10785     10786
     10785     10787     10785     10788     10788     10789     10788     10790
     10788     10791     10791     10792     10791     10793     10791     10794
     10794     10795     10794     10796     10794     10797     10745     10746
     10746     10748     10746     10747     10748     10749     10748     10750
     10748     10798     10798     10799     10798     10800     10798     10801
     10801     10802     10801     10803     10801     10804     10804     10805
     10804     10806     10804     10807     10807     10808     10807     10809
     10807     10810     10810     10811     10810     10812     10810     10813
     10813     10814     10813     10815     10813     10816     10816     10817
     10816     10818     10816     10819     10819     10820     10819     10821
     10819     10822     10822     10823     10822     10824     10822     10825
     10825     10826     10825     10827     10825     10828     10828     10829
     10828     10830     10828     10831     10831     10832     10831     10833
     10831     10834     10834     10835     10834     10836     10834     10837
     10837     10838     10837     10839     10837     10840     10841     10842
     10841     10843     10841     10844     10841     10845     10849     10847
     10847     10845     10847     10848     10845     10846     10845     10850
     10858     10857     10850     10851     10850     10852     10850     10856
     10856     10853     10853     10857     10853     10854     10853     10855
     10858     10859     10858     10860     10858     10861     10861     10862
     10861     10869     10861     10863     10869     10870     10869     10871
     10869     10872     10863     10864     10864     10866     10864     10865
     10866     10867     10866     10868     10866     10878     10878     10879
     10878     10880     10878     10881     10881     10882     10881     10883
     10881     10884     10884     10885     10884     10886     10884     10887
     10887     10888     10887     10889     10887     10890     10890     10891
     10890     10892     10890     10893     10893     10894     10893     10895
     10893     10896     10896     10897     10896     10898     10898     10899
     10898     10900     10900     10901     10900     10902     10900     10903
     10903     10904     10903     10905     10903     10906     10906     10907
     10906     10908     10906     10909     10909     10910     10909     10911
     10909     10912     10912     10913     10912     10914     10912     10915
     10915     10916     10915     10917     10915     10918     10918     10919
     10918     10920     10918     10921     10921     10922     10921     10923
     10921     10924     10872     10873     10873     10875     10873     10874
     10875     10876     10875     10877     10875     10925     10925     10926
     10925     10927     10925     10928     10928     10929     10928     10930
     10928     10931     10931     10932     10931     10933     10931     10934
     10934     10935     10934     10936     10934     10937     10937     10938
     10937     10939     10937     10940     10940     10941     10940     10942
     10940     10943     10943     10944     10943     10945     10943     10946
     10946     10947     10946     10948     10946     10949     10949     10950
     10949     10951     10949     10952     10952     10953     10952     10954
     10952     10955     10955     10956     10955     10957     10955     10958
     10958     10959     10958     10960     10958     10961     10961     10962
     10961     10963     10961     10964     10964     10965     10964     10966
     10964     10967     10968     10972     10968     10976     10968     10980
     10972     10973     10972     10974     10972     10975     10976     10977
     10976     10978     10976     10979     10980     10981     10980     10982
     10980     10983     10968     10969     10969     10970     10969     10971
     10969     10984     10984     10985     10984     10986     10984     10990
     10991     10992     10990     10987     10987     10991     10987     10988
     10987     10989     10992     10993     10992     10994     10992     10995
     10995     10996     10995     11003     10995     10997     11003     11004
     11003     11005     11003     11006     10997     10998     10998     11000
     10998     10999     11000     11001     11000     11002     11000     11012
     11012     11013     11012     11014     11012     11015     11015     11016
     11015     11017     11015     11018     11018     11019     11018     11020
     11018     11021     11021     11022     11021     11023     11021     11024
     11024     11025     11024     11026     11024     11027     11027     11028
     11027     11029     11027     11030     11030     11031     11030     11032
     11032     11033     11032     11034     11034     11035     11034     11036
     11034     11037     11037     11038     11037     11039     11037     11040
     11040     11041     11040     11042     11040     11043     11043     11044
     11043     11045     11043     11046     11046     11047     11046     11048
     11046     11049     11049     11050     11049     11051     11049     11052
     11052     11053     11052     11054     11052     11055     11055     11056
     11055     11057     11055     11058     11006     11007     11007     11009
     11007     11008     11009     11010     11009     11011     11009     11059
     11059     11060     11059     11061     11059     11062     11062     11063
     11062     11064     11062     11065     11065     11066     11065     11067
     11065     11068     11068     11069     11068     11070     11068     11071
     11071     11072     11071     11073     11071     11074     11074     11075
     11074     11076     11074     11077     11077     11078     11077     11079
     11077     11080     11080     11081     11080     11082     11080     11083
     11083     11084     11083     11085     11083     11086     11086     11087
     11086     11088     11086     11089     11089     11090     11089     11091
     11089     11092     11092     11093     11092     11094     11092     11095
     11095     11096     11095     11097     11095     11098     11098     11099
     11098     11100     11098     11101     11102     11106     11102     11110
     11102     11114     11106     11107     11106     11108     11106     11109
     11110     11111     11110     11112     11110     11113     11114     11115
     11114     11116     11114     11117     11102     11103     11103     11104
     11103     11105     11103     11118     11118     11119     11118     11120
     11118     11124     11125     11126     11124     11121     11121     11125
     11121     11122     11121     11123     11126     11127     11126     11128
     11126     11129     11129     11130     11129     11137     11129     11131
     11137     11138     11137     11139     11137     11140     11131     11132
     11132     11134     11132     11133     11134     11135     11134     11136
     11134     11146     11146     11147     11146     11148     11146     11149
     11149     11150     11149     11151     11149     11152     11152     11153
     11152     11154     11152     11155     11155     11156     11155     11157
     11155     11158     11158     11159     11158     11160     11158     11161
     11161     11162     11161     11163     11161     11164     11164     11165
     11164     11166     11166     11167     11166     11168     11168     11169
     11168     11170     11168     11171     11171     11172     11171     11173
     11171     11174     11174     11175     11174     11176     11174     11177
     11177     11178     11177     11179     11177     11180     11180     11181
     11180     11182     11180     11183     11183     11184     11183     11185
     11183     11186     11186     11187     11186     11188     11186     11189
     11189     11190     11189     11191     11189     11192     11140     11141
     11141     11143     11141     11142     11143     11144     11143     11145
     11143     11193     11193     11194     11193     11195     11193     11196
     11196     11197     11196     11198     11196     11199     11199     11200
     11199     11201     11199     11202     11202     11203     11202     11204
     11202     11205     11205     11206     11205     11207     11205     11208
     11208     11209     11208     11210     11208     11211     11211     11212
     11211     11213     11211     11214     11214     11215     11214     11216
     11214     11217     11217     11218     11217     11219     11217     11220
     11220     11221     11220     11222     11220     11223     11223     11224
     11223     11225     11223     11226     11226     11227     11226     11228
     11226     11229     11229     11230     11229     11231     11229     11232
     11232     11233     11232     11234     11232     11235     11236     11240
     11236     11244     11236     11248     11240     11241     11240     11242
     11240     11243     11244     11245     11244     11246     11244     11247
     11248     11249     11248     11250     11248     11251     11236     11237
     11237     11238     11237     11239     11237     11252     11252     11253
     11252     11254     11252     11258     11259     11260     11258     11255
     11255     11259     11255     11256     11255     11257     11260     11261
     11260     11262     11260     11263     11263     11264     11263     11271
     11263     11265     11271     11272     11271     11273     11271     11274
     11265     11266     11266     11268     11266     11267     11268     11269
     11268     11270     11268     11280     11280     11281     11280     11282
     11280     11283     11283     11284     11283     11285     11283     11286
     11286     11287     11286     11288     11286     11289     11289     11290
     11289     11291     11289     11292     11292     11293     11292     11294
     11292     11295     11295     11296     11295     11297     11295     11298
     11298     11299     11298     11300     11300     11301     11300     11302
     11302     11303     11302     11304     11302     11305     11305     11306
     11305     11307     11305     11308     11308     11309     11308     11310
     11308     11311     11311     11312     11311     11313     11311     11314
     11314     11315     11314     11316     11314     11317     11317     11318
     11317     11319     11317     11320     11320     11321     11320     11322
     11320     11323     11323     11324     11323     11325     11323     11326
     11274     11275     11275     11277     11275     11276     11277     11278
     11277     11279     11277     11327     11327     11328     11327     11329
     11327     11330     11330     11331     11330     11332     11330     11333
     11333     11334     11333     11335     11333     11336     11336     11337
     11336     11338     11336     11339     11339     11340     11339     11341
     11339     11342     11342     11343     11342     11344     11342     11345
     11345     11346     11345     11347     11345     11348     11348     11349
     11348     11350     11348     11351     11351     11352     11351     11353
     11351     11354     11354     11355     11354     11356     11354     11357
     11357     11358     11357     11359     11357     11360     11360     11361
     11360     11362     11360     11363     11363     11364     11363     11365
     11363     11366     11366     11367     11366     11368     11366     11369
     11370     11371     11370     11372     11370     11373     11370     11374
     11378     11376     11376     11374     11376     11377     11374     11375
     11374     11379     11387     11386     11379     11380     11379     11381
     11379     11385     11385     11382     11382     11386     11382     11383
     11382     11384     11387     11388     11387     11389     11387     11390
     11390     11391     11390     11398     11390     11392     11398     11399
     11398     11400     11398     11401     11392     11393     11393     11395
     11393     11394     11395     11396     11395     11397     11395     11407
     11407     11408     11407     11409     11407     11410     11410     11411
     11410     11412     11410     11413     11413     11414     11413     11415
     11413     11416     11416     11417     11416     11418     11416     11419
     11419     11420     11419     11421     11419     11422     11422     11423
     11422     11424     11422     11425     11425     11426     11425     11427
     11427     11428     11427     11429     11429     11430     11429     11431
     11429     11432     11432     11433     11432     11434     11432     11435
     11435     11436     11435     11437     11435     11438     11438     11439
     11438     11440     11438     11441     11441     11442     11441     11443
     11441     11444     11444     11445     11444     11446     11444     11447
     11447     11448     11447     11449     11447     11450     11450     11451
     11450     11452     11450     11453     11401     11402     11402     11404
     11402     11403     11404     11405     11404     11406     11404     11454
     11454     11455     11454     11456     11454     11457     11457     11458
     11457     11459     11457     11460     11460     11461     11460     11462
     11460     11463     11463     11464     11463     11465     11463     11466
     11466     11467     11466     11468     11466     11469     11469     11470
     11469     11471     11469     11472     11472     11473     11472     11474
     11472     11475     11475     11476     11475     11477     11475     11478
     11478     11479     11478     11480     11478     11481     11481     11482
     11481     11483     11481     11484     11484     11485     11484     11486
     11484     11487     11487     11488     11487     11489     11487     11490
     11490     11491     11490     11492     11490     11493     11493     11494
     11493     11495     11493     11496     11497     11501     11497     11505
     11497     11509     11501     11502     11501     11503     11501     11504
     11505     11506     11505     11507     11505     11508     11509     11510
     11509     11511     11509     11512     11497     11498     11498     11499
     11498     11500     11498     11513     11513     11514     11513     11515
     11513     11519     11520     11521     11519     11516     11516     11520
     11516     11517     11516     11518     11521     11522     11521     11523
     11521     11524     11524     11525     11524     11532     11524     11526
     11532     11533     11532     11534     11532     11535     11526     11527
     11527     11529     11527     11528     11529     11530     11529     11531
     11529     11541     11541     11542     11541     11543     11541     11544
     11544     11545     11544     11546     11544     11547     11547     11548
     11547     11549     11547     11550     11550     11551     11550     11552
     11550     11553     11553     11554     11553     11555     11553     11556
     11556     11557     11556     11558     11556     11559     11559     11560
     11559     11561     11561     11562     11561     11563     11563     11564
     11563     11565     11563     11566     11566     11567     11566     11568
     11566     11569     11569     11570     11569     11571     11569     11572
     11572     11573     11572     11574     11572     11575     11575     11576
     11575     11577     11575     11578     11578     11579     11578     11580
     11578     11581     11581     11582     11581     11583     11581     11584
     11584     11585     11584     11586     11584     11587     11535     11536
     11536     11538     11536     11537     11538     11539     11538     11540
     11538     11588     11588     11589     11588     11590     11588     11591
     11591     11592     11591     11593     11591     11594     11594     11595
     11594     11596     11594     11597     11597     11598     11597     11599
     11597     11600     11600     11601     11600     11602     11600     11603
     11603     11604     11603     11605     11603     11606     11606     11607
     11606     11608     11606     11609     11609     11610     11609     11611
     11609     11612     11612     11613     11612     11614     11612     11615
     11615     11616     11615     11617     11615     11618     11618     11619
     11618     11620     11618     11621     11621     11622     11621     11623
     11621     11624     11624     11625     11624     11626     11624     11627
     11627     11628     11627     11629     11627     11630     11631     11635
     11631     11639     11631     11643     11635     11636     11635     11637
     11635     11638     11639     11640     11639     11641     11639     11642
     11643     11644     11643     11645     11643     11646     11631     11632
     11632     11633     11632     11634     11632     11647     11647     11648
     11647     11649     11647     11653     11654     11655     11653     11650
     11650     11654     11650     11651     11650     11652     11655     11656
     11655     11657     11655     11658     11658     11659     11658     11666
     11658     11660     11666     11667     11666     11668     11666     11669
     11660     11661     11661     11663     11661     11662     11663     11664
     11663     11665     11663     11675     11675     11676     11675     11677
     11675     11678     11678     11679     11678     11680     11678     11681
     11681     11682     11681     11683     11681     11684     11684     11685
     11684     11686     11684     11687     11687     11688     11687     11689
     11687     11690     11690     11691     11690     11692     11690     11693
     11693     11694     11693     11695     11695     11696     11695     11697
     11697     11698     11697     11699     11697     11700     11700     11701
     11700     11702     11700     11703     11703     11704     11703     11705
     11703     11706     11706     11707     11706     11708     11706     11709
     11709     11710     11709     11711     11709     11712     11712     11713
     11712     11714     11712     11715     11715     11716     11715     11717
     11715     11718     11718     11719     11718     11720     11718     11721
     11669     11670     11670     11672     11670     11671     11672     11673
     11672     11674     11672     11722     11722     11723     11722     11724
     11722     11725     11725     11726     11725     11727     11725     11728
     11728     11729     11728     11730     11728     11731     11731     11732
     11731     11733     11731     11734     11734     11735     11734     11736
     11734     11737     11737     11738     11737     11739     11737     11740
     11740     11741     11740     11742     11740     11743     11743     11744
     11743     11745     11743     11746     11746     11747     11746     11748
     11746     11749     11749     11750     11749     11751     11749     11752
     11752     11753     11752     11754     11752     11755     11755     11756
     11755     11757     11755     11758     11758     11759     11758     11760
     11758     11761     11761     11762     11761     11763     11761     11764
     11765     11769     11765     11773     11765     11777     11769     11770
     11769     11771     11769     11772     11773     11774     11773     11775
     11773     11776     11777     11778     11777     11779     11777     11780
     11765     11766     11766     11767     11766     11768     11766     11781
     11781     11782     11781     11783     11781     11787     11788     11789
     11787     11784     11784     11788     11784     11785     11784     11786
     11789     11790     11789     11791     11789     11792     11792     11793
     11792     11800     11792     11794     11800     11801     11800     11802
     11800     11803     11794     11795     11795     11797     11795     11796
     11797     11798     11797     11799     11797     11809     11809     11810
     11809     11811     11809     11812     11812     11813     11812     11814
     11812     11815     11815     11816     11815     11817     11815     11818
     11818     11819     11818     11820     11818     11821     11821     11822
     11821     11823     11821     11824     11824     11825     11824     11826
     11824     11827     11827     11828     11827     11829     11829     11830
     11829     11831     11831     11832     11831     11833     11831     11834
     11834     11835     11834     11836     11834     11837     11837     11838
     11837     11839     11837     11840     11840     11841     11840     11842
     11840     11843     11843     11844     11843     11845     11843     11846
     11846     11847     11846     11848     11846     11849     11849     11850
     11849     11851     11849     11852     11852     11853     11852     11854
     11852     11855     11803     11804     11804     11806     11804     11805
     11806     11807     11806     11808     11806     11856     11856     11857
     11856     11858     11856     11859     11859     11860     11859     11861
     11859     11862     11862     11863     11862     11864     11862     11865
     11865     11866     11865     11867     11865     11868     11868     11869
     11868     11870     11868     11871     11871     11872     11871     11873
     11871     11874     11874     11875     11874     11876     11874     11877
     11877     11878     11877     11879     11877     11880     11880     11881
     11880     11882     11880     11883     11883     11884     11883     11885
     11883     11886     11886     11887     11886     11888     11886     11889
     11889     11890     11889     11891     11889     11892     11892     11893
     11892     11894     11892     11895     11895     11896     11895     11897
     11895     11898     11899     11903     11899     11907     11899     11911
     11903     11904     11903     11905     11903     11906     11907     11908
     11907     11909     11907     11910     11911     11912     11911     11913
     11911     11914     11899     11900     11900     11901     11900     11902
     11900     11915     11915     11916     11915     11917     11915     11921
     11922     11923     11921     11918     11918     11922     11918     11919
     11918     11920     11923     11924     11923     11925     11923     11926
     11926     11927     11926     11934     11926     11928     11934     11935
     11934     11936     11934     11937     11928     11929     11929     11931
     11929     11930     11931     11932     11931     11933     11931     11943
     11943     11944     11943     11945     11943     11946     11946     11947
     11946     11948     11946     11949     11949     11950     11949     11951
     11949     11952     11952     11953     11952     11954     11952     11955
     11955     11956     11955     11957     11955     11958     11958     11959
     11958     11960     11958     11961     11961     11962     11961     11963
     11963     11964     11963     11965     11965     11966     11965     11967
     11965     11968     11968     11969     11968     11970     11968     11971
     11971     11972     11971     11973     11971     11974     11974     11975
     11974     11976     11974     11977     11977     11978     11977     11979
     11977     11980     11980     11981     11980     11982     11980     11983
     11983     11984     11983     11985     11983     11986     11986     11987
     11986     11988     11986     11989     11937     11938     11938     11940
     11938     11939     11940     11941     11940     11942     11940     11990
     11990     11991     11990     11992     11990     11993     11993     11994
     11993     11995     11993     11996     11996     11997     11996     11998
     11996     11999     11999     12000     11999     12001     11999     12002
     12002     12003     12002     12004     12002     12005     12005     12006
     12005     12007     12005     12008     12008     12009     12008     12010
     12008     12011     12011     12012     12011     12013     12011     12014
     12014     12015     12014     12016     12014     12017     12017     12018
     12017     12019     12017     12020     12020     12021     12020     12022
     12020     12023     12023     12024     12023     12025     12023     12026
     12026     12027     12026     12028     12026     12029     12029     12030
     12029     12031     12029     12032     12033     12037     12033     12041
     12033     12045     12037     12038     12037     12039     12037     12040
     12041     12042     12041     12043     12041     12044     12045     12046
     12045     12047     12045     12048     12033     12034     12034     12035
     12034     12036     12034     12049     12049     12050     12049     12051
     12049     12055     12056     12057     12055     12052     12052     12056
     12052     12053     12052     12054     12057     12058     12057     12059
     12057     12060     12060     12061     12060     12068     12060     12062
     12068     12069     12068     12070     12068     12071     12062     12063
     12063     12065     12063     12064     12065     12066     12065     12067
     12065     12077     12077     12078     12077     12079     12077     12080
     12080     12081     12080     12082     12080     12083     12083     12084
     12083     12085     12083     12086     12086     12087     12086     12088
     12086     12089     12089     12090     12089     12091     12089     12092
     12092     12093     12092     12094     12092     12095     12095     12096
     12095     12097     12097     12098     12097     12099     12099     12100
     12099     12101     12099     12102     12102     12103     12102     12104
     12102     12105     12105     12106     12105     12107     12105     12108
     12108     12109     12108     12110     12108     12111     12111     12112
     12111     12113     12111     12114     12114     12115     12114     12116
     12114     12117     12117     12118     12117     12119     12117     12120
     12120     12121     12120     12122     12120     12123     12071     12072
     12072     12074     12072     12073     12074     12075     12074     12076
     12074     12124     12124     12125     12124     12126     12124     12127
     12127     12128     12127     12129     12127     12130     12130     12131
     12130     12132     12130     12133     12133     12134     12133     12135
     12133     12136     12136     12137     12136     12138     12136     12139
     12139     12140     12139     12141     12139     12142     12142     12143
     12142     12144     12142     12145     12145     12146     12145     12147
     12145     12148     12148     12149     12148     12150     12148     12151
     12151     12152     12151     12153     12151     12154     12154     12155
     12154     12156     12154     12157     12157     12158     12157     12159
     12157     12160     12160     12161     12160     12162     12160     12163
     12163     12164     12163     12165     12163     12166     12167     12171
     12167     12175     12167     12179     12171     12172     12171     12173
     12171     12174     12175     12176     12175     12177     12175     12178
     12179     12180     12179     12181     12179     12182     12167     12168
     12168     12169     12168     12170     12168     12183     12183     12184
     12183     12185     12183     12189     12190     12191     12189     12186
     12186     12190     12186     12187     12186     12188     12191     12192
     12191     12193     12191     12194     12194     12195     12194     12202
     12194     12196     12202     12203     12202     12204     12202     12205
     12196     12197     12197     12199     12197     12198     12199     12200
     12199     12201     12199     12211     12211     12212     12211     12213
     12211     12214     12214     12215     12214     12216     12214     12217
     12217     12218     12217     12219     12217     12220     12220     12221
     12220     12222     12220     12223     12223     12224     12223     12225
     12223     12226     12226     12227     12226     12228     12226     12229
     12229     12230     12229     12231     12231     12232     12231     12233
     12233     12234     12233     12235     12233     12236     12236     12237
     12236     12238     12236     12239     12239     12240     12239     12241
     12239     12242     12242     12243     12242     12244     12242     12245
     12245     12246     12245     12247     12245     12248     12248     12249
     12248     12250     12248     12251     12251     12252     12251     12253
     12251     12254     12254     12255     12254     12256     12254     12257
     12205     12206     12206     12208     12206     12207     12208     12209
     12208     12210     12208     12258     12258     12259     12258     12260
     12258     12261     12261     12262     12261     12263     12261     12264
     12264     12265     12264     12266     12264     12267     12267     12268
     12267     12269     12267     12270     12270     12271     12270     12272
     12270     12273     12273     12274     12273     12275     12273     12276
     12276     12277     12276     12278     12276     12279     12279     12280
     12279     12281     12279     12282     12282     12283     12282     12284
     12282     12285     12285     12286     12285     12287     12285     12288
     12288     12289     12288     12290     12288     12291     12291     12292
     12291     12293     12291     12294     12294     12295     12294     12296
     12294     12297     12297     12298     12297     12299     12297     12300
     12301     12305     12301     12309     12301     12313     12305     12306
     12305     12307     12305     12308     12309     12310     12309     12311
     12309     12312     12313     12314     12313     12315     12313     12316
     12301     12302     12302     12303     12302     12304     12302     12317
     12317     12318     12317     12319     12317     12323     12324     12325
     12323     12320     12320     12324     12320     12321     12320     12322
     12325     12326     12325     12327     12325     12328     12328     12329
     12328     12336     12328     12330     12336     12337     12336     12338
     12336     12339     12330     12331     12331     12333     12331     12332
     12333     12334     12333     12335     12333     12345     12345     12346
     12345     12347     12345     12348     12348     12349     12348     12350
     12348     12351     12351     12352     12351     12353     12351     12354
     12354     12355     12354     12356     12354     12357     12357     12358
     12357     12359     12357     12360     12360     12361     12360     12362
     12360     12363     12363     12364     12363     12365     12365     12366
     12365     12367     12367     12368     12367     12369     12367     12370
     12370     12371     12370     12372     12370     12373     12373     12374
     12373     12375     12373     12376     12376     12377     12376     12378
     12376     12379     12379     12380     12379     12381     12379     12382
     12382     12383     12382     12384     12382     12385     12385     12386
     12385     12387     12385     12388     12388     12389     12388     12390
     12388     12391     12339     12340     12340     12342     12340     12341
     12342     12343     12342     12344     12342     12392     12392     12393
     12392     12394     12392     12395     12395     12396     12395     12397
     12395     12398     12398     12399     12398     12400     12398     12401
     12401     12402     12401     12403     12401     12404     12404     12405
     12404     12406     12404     12407     12407     12408     12407     12409
     12407     12410     12410     12411     12410     12412     12410     12413
     12413     12414     12413     12415     12413     12416     12416     12417
     12416     12418     12416     12419     12419     12420     12419     12421
     12419     12422     12422     12423     12422     12424     12422     12425
     12425     12426     12425     12427     12425     12428     12428     12429
     12428     12430     12428     12431     12431     12432     12431     12433
     12431     12434     12435     12439     12435     12443     12435     12447
     12439     12440     12439     12441     12439     12442     12443     12444
     12443     12445     12443     12446     12447     12448     12447     12449
     12447     12450     12435     12436     12436     12437     12436     12438
     12436     12451     12451     12452     12451     12453     12451     12457
     12458     12459     12457     12454     12454     12458     12454     12455
     12454     12456     12459     12460     12459     12461     12459     12462
     12462     12463     12462     12470     12462     12464     12470     12471
     12470     12472     12470     12473     12464     12465     12465     12467
     12465     12466     12467     12468     12467     12469     12467     12479
     12479     12480     12479     12481     12479     12482     12482     12483
     12482     12484     12482     12485     12485     12486     12485     12487
     12485     12488     12488     12489     12488     12490     12488     12491
     12491     12492     12491     12493     12491     12494     12494     12495
     12494     12496     12494     12497     12497     12498     12497     12499
     12499     12500     12499     12501     12501     12502     12501     12503
     12501     12504     12504     12505     12504     12506     12504     12507
     12507     12508     12507     12509     12507     12510     12510     12511
     12510     12512     12510     12513     12513     12514     12513     12515
     12513     12516     12516     12517     12516     12518     12516     12519
     12519     12520     12519     12521     12519     12522     12522     12523
     12522     12524     12522     12525     12473     12474     12474     12476
     12474     12475     12476     12477     12476     12478     12476     12526
     12526     12527     12526     12528     12526     12529     12529     12530
     12529     12531     12529     12532     12532     12533     12532     12534
     12532     12535     12535     12536     12535     12537     12535     12538
     12538     12539     12538     12540     12538     12541     12541     12542
     12541     12543     12541     12544     12544     12545     12544     12546
     12544     12547     12547     12548     12547     12549     12547     12550
     12550     12551     12550     12552     12550     12553     12553     12554
     12553     12555     12553     12556     12556     12557     12556     12558
     12556     12559     12559     12560     12559     12561     12559     12562
     12562     12563     12562     12564     12562     12565     12565     12566
     12565     12567     12565     12568     12569     12573     12569     12577
     12569     12581     12573     12574     12573     12575     12573     12576
     12577     12578     12577     12579     12577     12580     12581     12582
     12581     12583     12581     12584     12569     12570     12570     12571
     12570     12572     12570     12585     12585     12586     12585     12587
     12585     12591     12592     12593     12591     12588     12588     12592
     12588     12589     12588     12590     12593     12594     12593     12595
     12593     12596     12596     12597     12596     12604     12596     12598
     12604     12605     12604     12606     12604     12607     12598     12599
     12599     12601     12599     12600     12601     12602     12601     12603
     12601     12613     12613     12614     12613     12615     12613     12616
     12616     12617     12616     12618     12616     12619     12619     12620
     12619     12621     12619     12622     12622     12623     12622     12624
     12622     12625     12625     12626     12625     12627     12625     12628
     12628     12629     12628     12630     12628     12631     12631     12632
     12631     12633     12633     12634     12633     12635     12635     12636
     12635     12637     12635     12638     12638     12639     12638     12640
     12638     12641     12641     12642     12641     12643     12641     12644
     12644     12645     12644     12646     12644     12647     12647     12648
     12647     12649     12647     12650     12650     12651     12650     12652
     12650     12653     12653     12654     12653     12655     12653     12656
     12656     12657     12656     12658     12656     12659     12607     12608
     12608     12610     12608     12609     12610     12611     12610     12612
     12610     12660     12660     12661     12660     12662     12660     12663
     12663     12664     12663     12665     12663     12666     12666     12667
     12666     12668     12666     12669     12669     12670     12669     12671
     12669     12672     12672     12673     12672     12674     12672     12675
     12675     12676     12675     12677     12675     12678     12678     12679
     12678     12680     12678     12681     12681     12682     12681     12683
     12681     12684     12684     12685     12684     12686     12684     12687
     12687     12688     12687     12689     12687     12690     12690     12691
     12690     12692     12690     12693     12693     12694     12693     12695
     12693     12696     12696     12697     12696     12698     12696     12699
     12699     12700     12699     12701     12699     12702     12703     12707
     12703     12711     12703     12715     12707     12708     12707     12709
     12707     12710     12711     12712     12711     12713     12711     12714
     12715     12716     12715     12717     12715     12718     12703     12704
     12704     12705     12704     12706     12704     12719     12719     12720
     12719     12721     12719     12725     12726     12727     12725     12722
     12722     12726     12722     12723     12722     12724     12727     12728
     12727     12729     12727     12730     12730     12731     12730     12738
     12730     12732     12738     12739     12738     12740     12738     12741
     12732     12733     12733     12735     12733     12734     12735     12736
     12735     12737     12735     12747     12747     12748     12747     12749
     12747     12750     12750     12751     12750     12752     12750     12753
     12753     12754     12753     12755     12753     12756     12756     12757
     12756     12758     12756     12759     12759     12760     12759     12761
     12759     12762     12762     12763     12762     12764     12762     12765
     12765     12766     12765     12767     12767     12768     12767     12769
     12769     12770     12769     12771     12769     12772     12772     12773
     12772     12774     12772     12775     12775     12776     12775     12777
     12775     12778     12778     12779     12778     12780     12778     12781
     12781     12782     12781     12783     12781     12784     12784     12785
     12784     12786     12784     12787     12787     12788     12787     12789
     12787     12790     12790     12791     12790     12792     12790     12793
     12741     12742     12742     12744     12742     12743     12744     12745
     12744     12746     12744     12794     12794     12795     12794     12796
     12794     12797     12797     12798     12797     12799     12797     12800
     12800     12801     12800     12802     12800     12803     12803     12804
     12803     12805     12803     12806     12806     12807     12806     12808
     12806     12809     12809     12810     12809     12811     12809     12812
     12812     12813     12812     12814     12812     12815     12815     12816
     12815     12817     12815     12818     12818     12819     12818     12820
     12818     12821     12821     12822     12821     12823     12821     12824
     12824     12825     12824     12826     12824     12827     12827     12828
     12827     12829     12827     12830     12830     12831     12830     12832
     12830     12833     12833     12834     12833     12835     12833     12836
     12837     12841     12837     12845     12837     12849     12841     12842
     12841     12843     12841     12844     12845     12846     12845     12847
     12845     12848     12849     12850     12849     12851     12849     12852
     12837     12838     12838     12839     12838     12840     12838     12853
     12853     12854     12853     12855     12853     12859     12860     12861
     12859     12856     12856     12860     12856     12857     12856     12858
     12861     12862     12861     12863     12861     12864     12864     12865
     12864     12872     12864     12866     12872     12873     12872     12874
     12872     12875     12866     12867     12867     12869     12867     12868
     12869     12870     12869     12871     12869     12881     12881     12882
     12881     12883     12881     12884     12884     12885     12884     12886
     12884     12887     12887     12888     12887     12889     12887     12890
     12890     12891     12890     12892     12890     12893     12893     12894
     12893     12895     12893     12896     12896     12897     12896     12898
     12896     12899     12899     12900     12899     12901     12901     12902
     12901     12903     12903     12904     12903     12905     12903     12906
     12906     12907     12906     12908     12906     12909     12909     12910
     12909     12911     12909     12912     12912     12913     12912     12914
     12912     12915     12915     12916     12915     12917     12915     12918
     12918     12919     12918     12920     12918     12921     12921     12922
     12921     12923     12921     12924     12924     12925     12924     12926
     12924     12927     12875     12876     12876     12878     12876     12877
     12878     12879     12878     12880     12878     12928     12928     12929
     12928     12930     12928     12931     12931     12932     12931     12933
     12931     12934     12934     12935     12934     12936     12934     12937
     12937     12938     12937     12939     12937     12940     12940     12941
     12940     12942     12940     12943     12943     12944     12943     12945
     12943     12946     12946     12947     12946     12948     12946     12949
     12949     12950     12949     12951     12949     12952     12952     12953
     12952     12954     12952     12955     12955     12956     12955     12957
     12955     12958     12958     12959     12958     12960     12958     12961
     12961     12962     12961     12963     12961     12964     12964     12965
     12964     12966     12964     12967     12967     12968     12967     12969
     12967     12970     12971     12975     12971     12979     12971     12983
     12975     12976     12975     12977     12975     12978     12979     12980
     12979     12981     12979     12982     12983     12984     12983     12985
     12983     12986     12971     12972     12972     12973     12972     12974
     12972     12987     12987     12988     12987     12989     12987     12993
     12994     12995     12993     12990     12990     12994     12990     12991
     12990     12992     12995     12996     12995     12997     12995     12998
     12998     12999     12998     13006     12998     13000     13006     13007
     13006     13008     13006     13009     13000     13001     13001     13003
     13001     13002     13003     13004     13003     13005     13003     13015
     13015     13016     13015     13017     13015     13018     13018     13019
     13018     13020     13018     13021     13021     13022     13021     13023
     13021     13024     13024     13025     13024     13026     13024     13027
     13027     13028     13027     13029     13027     13030     13030     13031
     13030     13032     13030     13033     13033     13034     13033     13035
     13035     13036     13035     13037     13037     13038     13037     13039
     13037     13040     13040     13041     13040     13042     13040     13043
     13043     13044     13043     13045     13043     13046     13046     13047
     13046     13048     13046     13049     13049     13050     13049     13051
     13049     13052     13052     13053     13052     13054     13052     13055
     13055     13056     13055     13057     13055     13058     13058     13059
     13058     13060     13058     13061     13009     13010     13010     13012
     13010     13011     13012     13013     13012     13014     13012     13062
     13062     13063     13062     13064     13062     13065     13065     13066
     13065     13067     13065     13068     13068     13069     13068     13070
     13068     13071     13071     13072     13071     13073     13071     13074
     13074     13075     13074     13076     13074     13077     13077     13078
     13077     13079     13077     13080     13080     13081     13080     13082
     13080     13083     13083     13084     13083     13085     13083     13086
     13086     13087     13086     13088     13086     13089     13089     13090
     13089     13091     13089     13092     13092     13093     13092     13094
     13092     13095     13095     13096     13095     13097     13095     13098
     13098     13099     13098     13100     13098     13101     13101     13102
     13101     13103     13101     13104     13105     13109     13105     13113
     13105     13117     13109     13110     13109     13111     13109     13112
     13113     13114     13113     13115     13113     13116     13117     13118
     13117     13119     13117     13120     13105     13106     13106     13107
     13106     13108     13106     13121     13121     13122     13121     13123
     13121     13127     13128     13129     13127     13124     13124     13128
     13124     13125     13124     13126     13129     13130     13129     13131
     13129     13132     13132     13133     13132     13140     13132     13134
     13140     13141     13140     13142     13140     13143     13134     13135
     13135     13137     13135     13136     13137     13138     13137     13139
     13137     13149     13149     13150     13149     13151     13149     13152
     13152     13153     13152     13154     13152     13155     13155     13156
     13155     13157     13155     13158     13158     13159     13158     13160
     13158     13161     13161     13162     13161     13163     13161     13164
     13164     13165     13164     13166     13164     13167     13167     13168
     13167     13169     13169     13170     13169     13171     13171     13172
     13171     13173     13171     13174     13174     13175     13174     13176
     13174     13177     13177     13178     13177     13179     13177     13180
     13180     13181     13180     13182     13180     13183     13183     13184
     13183     13185     13183     13186     13186     13187     13186     13188
     13186     13189     13189     13190     13189     13191     13189     13192
     13192     13193     13192     13194     13192     13195     13143     13144
     13144     13146     13144     13145     13146     13147     13146     13148
     13146     13196     13196     13197     13196     13198     13196     13199
     13199     13200     13199     13201     13199     13202     13202     13203
     13202     13204     13202     13205     13205     13206     13205     13207
     13205     13208     13208     13209     13208     13210     13208     13211
     13211     13212     13211     13213     13211     13214     13214     13215
     13214     13216     13214     13217     13217     13218     13217     13219
     13217     13220     13220     13221     13220     13222     13220     13223
     13223     13224     13223     13225     13223     13226     13226     13227
     13226     13228     13226     13229     13229     13230     13229     13231
     13229     13232     13232     13233     13232     13234     13232     13235
     13235     13236     13235     13237     13235     13238     13239     13243
     13239     13247     13239     13251     13243     13244     13243     13245
     13243     13246     13247     13248     13247     13249     13247     13250
     13251     13252     13251     13253     13251     13254     13239     13240
     13240     13241     13240     13242     13240     13255     13255     13256
     13255     13257     13255     13261     13262     13263     13261     13258
     13258     13262     13258     13259     13258     13260     13263     13264
     13263     13265     13263     13266     13266     13267     13266     13274
     13266     13268     13274     13275     13274     13276     13274     13277
     13268     13269     13269     13271     13269     13270     13271     13272
     13271     13273     13271     13283     13283     13284     13283     13285
     13283     13286     13286     13287     13286     13288     13286     13289
     13289     13290     13289     13291     13289     13292     13292     13293
     13292     13294     13292     13295     13295     13296     13295     13297
     13295     13298     13298     13299     13298     13300     13298     13301
     13301     13302     13301     13303     13303     13304     13303     13305
     13305     13306     13305     13307     13305     13308     13308     13309
     13308     13310     13308     13311     13311     13312     13311     13313
     13311     13314     13314     13315     13314     13316     13314     13317
     13317     13318     13317     13319     13317     13320     13320     13321
     13320     13322     13320     13323     13323     13324     13323     13325
     13323     13326     13326     13327     13326     13328     13326     13329
     13277     13278     13278     13280     13278     13279     13280     13281
     13280     13282     13280     13330     13330     13331     13330     13332
     13330     13333     13333     13334     13333     13335     13333     13336
     13336     13337     13336     13338     13336     13339     13339     13340
     13339     13341     13339     13342     13342     13343     13342     13344
     13342     13345     13345     13346     13345     13347     13345     13348
     13348     13349     13348     13350     13348     13351     13351     13352
     13351     13353     13351     13354     13354     13355     13354     13356
     13354     13357     13357     13358     13357     13359     13357     13360
     13360     13361     13360     13362     13360     13363     13363     13364
     13363     13365     13363     13366     13366     13367     13366     13368
     13366     13369     13369     13370     13369     13371     13369     13372
     13373     13377     13373     13381     13373     13385     13377     13378
     13377     13379     13377     13380     13381     13382     13381     13383
     13381     13384     13385     13386     13385     13387     13385     13388
     13373     13374     13374     13375     13374     13376     13374     13389
     13389     13390     13389     13391     13389     13395     13396     13397
     13395     13392     13392     13396     13392     13393     13392     13394
     13397     13398     13397     13399     13397     13400     13400     13401
     13400     13408     13400     13402     13408     13409     13408     13410
     13408     13411     13402     13403     13403     13405     13403     13404
     13405     13406     13405     13407     13405     13417     13417     13418
     13417     13419     13417     13420     13420     13421     13420     13422
     13420     13423     13423     13424     13423     13425     13423     13426
     13426     13427     13426     13428     13426     13429     13429     13430
     13429     13431     13429     13432     13432     13433     13432     13434
     13432     13435     13435     13436     13435     13437     13437     13438
     13437     13439     13439     13440     13439     13441     13439     13442
     13442     13443     13442     13444     13442     13445     13445     13446
     13445     13447     13445     13448     13448     13449     13448     13450
     13448     13451     13451     13452     13451     13453     13451     13454
     13454     13455     13454     13456     13454     13457     13457     13458
     13457     13459     13457     13460     13460     13461     13460     13462
     13460     13463     13411     13412     13412     13414     13412     13413
     13414     13415     13414     13416     13414     13464     13464     13465
     13464     13466     13464     13467     13467     13468     13467     13469
     13467     13470     13470     13471     13470     13472     13470     13473
     13473     13474     13473     13475     13473     13476     13476     13477
     13476     13478     13476     13479     13479     13480     13479     13481
     13479     13482     13482     13483     13482     13484     13482     13485
     13485     13486     13485     13487     13485     13488     13488     13489
     13488     13490     13488     13491     13491     13492     13491     13493
     13491     13494     13494     13495     13494     13496     13494     13497
     13497     13498     13497     13499     13497     13500     13500     13501
     13500     13502     13500     13503     13503     13504     13503     13505
     13503     13506     13507     13511     13507     13515     13507     13519
     13511     13512     13511     13513     13511     13514     13515     13516
     13515     13517     13515     13518     13519     13520     13519     13521
     13519     13522     13507     13508     13508     13509     13508     13510
     13508     13523     13523     13524     13523     13525     13523     13529
     13530     13531     13529     13526     13526     13530     13526     13527
     13526     13528     13531     13532     13531     13533     13531     13534
     13534     13535     13534     13542     13534     13536     13542     13543
     13542     13544     13542     13545     13536     13537     13537     13539
     13537     13538     13539     13540     13539     13541     13539     13551
     13551     13552     13551     13553     13551     13554     13554     13555
     13554     13556     13554     13557     13557     13558     13557     13559
     13557     13560     13560     13561     13560     13562     13560     13563
     13563     13564     13563     13565     13563     13566     13566     13567
     13566     13568     13566     13569     13569     13570     13569     13571
     13571     13572     13571     13573     13573     13574     13573     13575
     13573     13576     13576     13577     13576     13578     13576     13579
     13579     13580     13579     13581     13579     13582     13582     13583
     13582     13584     13582     13585     13585     13586     13585     13587
     13585     13588     13588     13589     13588     13590     13588     13591
     13591     13592     13591     13593     13591     13594     13594     13595
     13594     13596     13594     13597     13545     13546     13546     13548
     13546     13547     13548     13549     13548     13550     13548     13598
     13598     13599     13598     13600     13598     13601     13601     13602
     13601     13603     13601     13604     13604     13605     13604     13606
     13604     13607     13607     13608     13607     13609     13607     13610
     13610     13611     13610     13612     13610     13613     13613     13614
     13613     13615     13613     13616     13616     13617     13616     13618
     13616     13619     13619     13620     13619     13621     13619     13622
     13622     13623     13622     13624     13622     13625     13625     13626
     13625     13627     13625     13628     13628     13629     13628     13630
     13628     13631     13631     13632     13631     13633     13631     13634
     13634     13635     13634     13636     13634     13637     13637     13638
     13637     13639     13637     13640     13641     13642     13641     13643
     13641     13644     13641     13645     13649     13647     13647     13645
     13647     13648     13645     13646     13645     13650     13658     13657
     13650     13651     13650     13652     13650     13656     13656     13653
     13653     13657     13653     13654     13653     13655     13658     13659
     13658     13660     13658     13661     13661     13662     13661     13669
     13661     13663     13669     13670     13669     13671     13669     13672
     13663     13664     13664     13666     13664     13665     13666     13667
     13666     13668     13666     13678     13678     13679     13678     13680
     13678     13681     13681     13682     13681     13683     13681     13684
     13684     13685     13684     13686     13684     13687     13687     13688
     13687     13689     13687     13690     13690     13691     13690     13692
     13690     13693     13693     13694     13693     13695     13693     13696
     13696     13697     13696     13698     13698     13699     13698     13700
     13700     13701     13700     13702     13700     13703     13703     13704
     13703     13705     13703     13706     13706     13707     13706     13708
     13706     13709     13709     13710     13709     13711     13709     13712
     13712     13713     13712     13714     13712     13715     13715     13716
     13715     13717     13715     13718     13718     13719     13718     13720
     13718     13721     13721     13722     13721     13723     13721     13724
     13672     13673     13673     13675     13673     13674     13675     13676
     13675     13677     13675     13725     13725     13726     13725     13727
     13725     13728     13728     13729     13728     13730     13728     13731
     13731     13732     13731     13733     13731     13734     13734     13735
     13734     13736     13734     13737     13737     13738     13737     13739
     13737     13740     13740     13741     13740     13742     13740     13743
     13743     13744     13743     13745     13743     13746     13746     13747
     13746     13748     13746     13749     13749     13750     13749     13751
     13749     13752     13752     13753     13752     13754     13752     13755
     13755     13756     13755     13757     13755     13758     13758     13759
     13758     13760     13758     13761     13761     13762     13761     13763
     13761     13764     13764     13765     13764     13766     13764     13767
     13768     13772     13768     13776     13768     13780     13772     13773
     13772     13774     13772     13775     13776     13777     13776     13778
     13776     13779     13780     13781     13780     13782     13780     13783
     13768     13769     13769     13770     13769     13771     13769     13784
     13784     13785     13784     13786     13784     13790     13791     13792
     13790     13787     13787     13791     13787     13788     13787     13789
     13792     13793     13792     13794     13792     13795     13795     13796
     13795     13803     13795     13797     13803     13804     13803     13805
     13803     13806     13797     13798     13798     13800     13798     13799
     13800     13801     13800     13802     13800     13812     13812     13813
     13812     13814     13812     13815     13815     13816     13815     13817
     13815     13818     13818     13819     13818     13820     13818     13821
     13821     13822     13821     13823     13821     13824     13824     13825
     13824     13826     13824     13827     13827     13828     13827     13829
     13827     13830     13830     13831     13830     13832     13832     13833
     13832     13834     13834     13835     13834     13836     13834     13837
     13837     13838     13837     13839     13837     13840     13840     13841
     13840     13842     13840     13843     13843     13844     13843     13845
     13843     13846     13846     13847     13846     13848     13846     13849
     13849     13850     13849     13851     13849     13852     13852     13853
     13852     13854     13852     13855     13855     13856     13855     13857
     13855     13858     13806     13807     13807     13809     13807     13808
     13809     13810     13809     13811     13809     13859     13859     13860
     13859     13861     13859     13862     13862     13863     13862     13864
     13862     13865     13865     13866     13865     13867     13865     13868
     13868     13869     13868     13870     13868     13871     13871     13872
     13871     13873     13871     13874     13874     13875     13874     13876
     13874     13877     13877     13878     13877     13879     13877     13880
     13880     13881     13880     13882     13880     13883     13883     13884
     13883     13885     13883     13886     13886     13887     13886     13888
     13886     13889     13889     13890     13889     13891     13889     13892
     13892     13893     13892     13894     13892     13895     13895     13896
     13895     13897     13895     13898     13898     13899     13898     13900
     13898     13901     13902     13903     13902     13904     13902     13905
     13902     13906     13910     13908     13908     13906     13908     13909
     13906     13907     13906     13911     13919     13918     13911     13912
     13911     13913     13911     13917     13917     13914     13914     13918
     13914     13915     13914     13916     13919     13920     13919     13921
     13919     13922     13922     13923     13922     13930     13922     13924
     13930     13931     13930     13932     13930     13933     13924     13925
     13925     13927     13925     13926     13927     13928     13927     13929
     13927     13939     13939     13940     13939     13941     13939     13942
     13942     13943     13942     13944     13942     13945     13945     13946
     13945     13947     13945     13948     13948     13949     13948     13950
     13948     13951     13951     13952     13951     13953     13951     13954
     13954     13955     13954     13956     13954     13957     13957     13958
     13957     13959     13959     13960     13959     13961     13961     13962
     13961     13963     13961     13964     13964     13965     13964     13966
     13964     13967     13967     13968     13967     13969     13967     13970
     13970     13971     13970     13972     13970     13973     13973     13974
     13973     13975     13973     13976     13976     13977     13976     13978
     13976     13979     13979     13980     13979     13981     13979     13982
     13982     13983     13982     13984     13982     13985     13933     13934
     13934     13936     13934     13935     13936     13937     13936     13938
     13936     13986     13986     13987     13986     13988     13986     13989
     13989     13990     13989     13991     13989     13992     13992     13993
     13992     13994     13992     13995     13995     13996     13995     13997
     13995     13998     13998     13999     13998     14000     13998     14001
     14001     14002     14001     14003     14001     14004     14004     14005
     14004     14006     14004     14007     14007     14008     14007     14009
     14007     14010     14010     14011     14010     14012     14010     14013
     14013     14014     14013     14015     14013     14016     14016     14017
     14016     14018     14016     14019     14019     14020     14019     14021
     14019     14022     14022     14023     14022     14024     14022     14025
     14025     14026     14025     14027     14025     14028     14029     14033
     14029     14037     14029     14041     14033     14034     14033     14035
     14033     14036     14037     14038     14037     14039     14037     14040
     14041     14042     14041     14043     14041     14044     14029     14030
     14030     14031     14030     14032     14030     14045     14045     14046
     14045     14047     14045     14051     14052     14053     14051     14048
     14048     14052     14048     14049     14048     14050     14053     14054
     14053     14055     14053     14056     14056     14057     14056     14064
     14056     14058     14064     14065     14064     14066     14064     14067
     14058     14059     14059     14061     14059     14060     14061     14062
     14061     14063     14061     14073     14073     14074     14073     14075
     14073     14076     14076     14077     14076     14078     14076     14079
     14079     14080     14079     14081     14079     14082     14082     14083
     14082     14084     14082     14085     14085     14086     14085     14087
     14085     14088     14088     14089     14088     14090     14088     14091
     14091     14092     14091     14093     14093     14094     14093     14095
     14095     14096     14095     14097     14095     14098     14098     14099
     14098     14100     14098     14101     14101     14102     14101     14103
     14101     14104     14104     14105     14104     14106     14104     14107
     14107     14108     14107     14109     14107     14110     14110     14111
     14110     14112     14110     14113     14113     14114     14113     14115
     14113     14116     14116     14117     14116     14118     14116     14119
     14067     14068     14068     14070     14068     14069     14070     14071
     14070     14072     14070     14120     14120     14121     14120     14122
     14120     14123     14123     14124     14123     14125     14123     14126
     14126     14127     14126     14128     14126     14129     14129     14130
     14129     14131     14129     14132     14132     14133     14132     14134
     14132     14135     14135     14136     14135     14137     14135     14138
     14138     14139     14138     14140     14138     14141     14141     14142
     14141     14143     14141     14144     14144     14145     14144     14146
     14144     14147     14147     14148     14147     14149     14147     14150
     14150     14151     14150     14152     14150     14153     14153     14154
     14153     14155     14153     14156     14156     14157     14156     14158
     14156     14159     14159     14160     14159     14161     14159     14162
     14163     14167     14163     14171     14163     14175     14167     14168
     14167     14169     14167     14170     14171     14172     14171     14173
     14171     14174     14175     14176     14175     14177     14175     14178
     14163     14164     14164     14165     14164     14166     14164     14179
     14179     14180     14179     14181     14179     14185     14186     14187
     14185     14182     14182     14186     14182     14183     14182     14184
     14187     14188     14187     14189     14187     14190     14190     14191
     14190     14198     14190     14192     14198     14199     14198     14200
     14198     14201     14192     14193     14193     14195     14193     14194
     14195     14196     14195     14197     14195     14207     14207     14208
     14207     14209     14207     14210     14210     14211     14210     14212
     14210     14213     14213     14214     14213     14215     14213     14216
     14216     14217     14216     14218     14216     14219     14219     14220
     14219     14221     14219     14222     14222     14223     14222     14224
     14222     14225     14225     14226     14225     14227     14227     14228
     14227     14229     14229     14230     14229     14231     14229     14232
     14232     14233     14232     14234     14232     14235     14235     14236
     14235     14237     14235     14238     14238     14239     14238     14240
     14238     14241     14241     14242     14241     14243     14241     14244
     14244     14245     14244     14246     14244     14247     14247     14248
     14247     14249     14247     14250     14250     14251     14250     14252
     14250     14253     14201     14202     14202     14204     14202     14203
     14204     14205     14204     14206     14204     14254     14254     14255
     14254     14256     14254     14257     14257     14258     14257     14259
     14257     14260     14260     14261     14260     14262     14260     14263
     14263     14264     14263     14265     14263     14266     14266     14267
     14266     14268     14266     14269     14269     14270     14269     14271
     14269     14272     14272     14273     14272     14274     14272     14275
     14275     14276     14275     14277     14275     14278     14278     14279
     14278     14280     14278     14281     14281     14282     14281     14283
     14281     14284     14284     14285     14284     14286     14284     14287
     14287     14288     14287     14289     14287     14290     14290     14291
     14290     14292     14290     14293     14293     14294     14293     14295
     14293     14296     14297     14298     14297     14299     14297     14300
     14297     14301     14305     14303     14303     14301     14303     14304
     14301     14302     14301     14306     14314     14313     14306     14307
     14306     14308     14306     14312     14312     14309     14309     14313
     14309     14310     14309     14311     14314     14315     14314     14316
     14314     14317     14317     14318     14317     14325     14317     14319
     14325     14326     14325     14327     14325     14328     14319     14320
     14320     14322     14320     14321     14322     14323     14322     14324
     14322     14334     14334     14335     14334     14336     14334     14337
     14337     14338     14337     14339     14337     14340     14340     14341
     14340     14342     14340     14343     14343     14344     14343     14345
     14343     14346     14346     14347     14346     14348     14346     14349
     14349     14350     14349     14351     14349     14352     14352     14353
     14352     14354     14354     14355     14354     14356     14356     14357
     14356     14358     14356     14359     14359     14360     14359     14361
     14359     14362     14362     14363     14362     14364     14362     14365
     14365     14366     14365     14367     14365     14368     14368     14369
     14368     14370     14368     14371     14371     14372     14371     14373
     14371     14374     14374     14375     14374     14376     14374     14377
     14377     14378     14377     14379     14377     14380     14328     14329
     14329     14331     14329     14330     14331     14332     14331     14333
     14331     14381     14381     14382     14381     14383     14381     14384
     14384     14385     14384     14386     14384     14387     14387     14388
     14387     14389     14387     14390     14390     14391     14390     14392
     14390     14393     14393     14394     14393     14395     14393     14396
     14396     14397     14396     14398     14396     14399     14399     14400
     14399     14401     14399     14402     14402     14403     14402     14404
     14402     14405     14405     14406     14405     14407     14405     14408
     14408     14409     14408     14410     14408     14411     14411     14412
     14411     14413     14411     14414     14414     14415     14414     14416
     14414     14417     14417     14418     14417     14419     14417     14420
     14420     14421     14420     14422     14420     14423     14424     14428
     14424     14432     14424     14436     14428     14429     14428     14430
     14428     14431     14432     14433     14432     14434     14432     14435
     14436     14437     14436     14438     14436     14439     14424     14425
     14425     14426     14425     14427     14425     14440     14440     14441
     14440     14442     14440     14446     14447     14448     14446     14443
     14443     14447     14443     14444     14443     14445     14448     14449
     14448     14450     14448     14451     14451     14452     14451     14459
     14451     14453     14459     14460     14459     14461     14459     14462
     14453     14454     14454     14456     14454     14455     14456     14457
     14456     14458     14456     14468     14468     14469     14468     14470
     14468     14471     14471     14472     14471     14473     14471     14474
     14474     14475     14474     14476     14474     14477     14477     14478
     14477     14479     14477     14480     14480     14481     14480     14482
     14480     14483     14483     14484     14483     14485     14483     14486
     14486     14487     14486     14488     14488     14489     14488     14490
     14490     14491     14490     14492     14490     14493     14493     14494
     14493     14495     14493     14496     14496     14497     14496     14498
     14496     14499     14499     14500     14499     14501     14499     14502
     14502     14503     14502     14504     14502     14505     14505     14506
     14505     14507     14505     14508     14508     14509     14508     14510
     14508     14511     14511     14512     14511     14513     14511     14514
     14462     14463     14463     14465     14463     14464     14465     14466
     14465     14467     14465     14515     14515     14516     14515     14517
     14515     14518     14518     14519     14518     14520     14518     14521
     14521     14522     14521     14523     14521     14524     14524     14525
     14524     14526     14524     14527     14527     14528     14527     14529
     14527     14530     14530     14531     14530     14532     14530     14533
     14533     14534     14533     14535     14533     14536     14536     14537
     14536     14538     14536     14539     14539     14540     14539     14541
     14539     14542     14542     14543     14542     14544     14542     14545
     14545     14546     14545     14547     14545     14548     14548     14549
     14548     14550     14548     14551     14551     14552     14551     14553
     14551     14554     14554     14555     14554     14556     14554     14557
     14558     14562     14558     14566     14558     14570     14562     14563
     14562     14564     14562     14565     14566     14567     14566     14568
     14566     14569     14570     14571     14570     14572     14570     14573
     14558     14559     14559     14560     14559     14561     14559     14574
     14574     14575     14574     14576     14574     14580     14581     14582
     14580     14577     14577     14581     14577     14578     14577     14579
     14582     14583     14582     14584     14582     14585     14585     14586
     14585     14593     14585     14587     14593     14594     14593     14595
     14593     14596     14587     14588     14588     14590     14588     14589
     14590     14591     14590     14592     14590     14602     14602     14603
     14602     14604     14602     14605     14605     14606     14605     14607
     14605     14608     14608     14609     14608     14610     14608     14611
     14611     14612     14611     14613     14611     14614     14614     14615
     14614     14616     14614     14617     14617     14618     14617     14619
     14617     14620     14620     14621     14620     14622     14622     14623
     14622     14624     14624     14625     14624     14626     14624     14627
     14627     14628     14627     14629     14627     14630     14630     14631
     14630     14632     14630     14633     14633     14634     14633     14635
     14633     14636     14636     14637     14636     14638     14636     14639
     14639     14640     14639     14641     14639     14642     14642     14643
     14642     14644     14642     14645     14645     14646     14645     14647
     14645     14648     14596     14597     14597     14599     14597     14598
     14599     14600     14599     14601     14599     14649     14649     14650
     14649     14651     14649     14652     14652     14653     14652     14654
     14652     14655     14655     14656     14655     14657     14655     14658
     14658     14659     14658     14660     14658     14661     14661     14662
     14661     14663     14661     14664     14664     14665     14664     14666
     14664     14667     14667     14668     14667     14669     14667     14670
     14670     14671     14670     14672     14670     14673     14673     14674
     14673     14675     14673     14676     14676     14677     14676     14678
     14676     14679     14679     14680     14679     14681     14679     14682
     14682     14683     14682     14684     14682     14685     14685     14686
     14685     14687     14685     14688     14688     14689     14688     14690
     14688     14691     14692     14693     14692     14694     14692     14695
     14692     14696     14700     14698     14698     14696     14698     14699
     14696     14697     14696     14701     14709     14708     14701     14702
     14701     14703     14701     14707     14707     14704     14704     14708
     14704     14705     14704     14706     14709     14710     14709     14711
     14709     14712     14712     14713     14712     14720     14712     14714
     14720     14721     14720     14722     14720     14723     14714     14715
     14715     14717     14715     14716     14717     14718     14717     14719
     14717     14729     14729     14730     14729     14731     14729     14732
     14732     14733     14732     14734     14732     14735     14735     14736
     14735     14737     14735     14738     14738     14739     14738     14740
     14738     14741     14741     14742     14741     14743     14741     14744
     14744     14745     14744     14746     14744     14747     14747     14748
     14747     14749     14749     14750     14749     14751     14751     14752
     14751     14753     14751     14754     14754     14755     14754     14756
     14754     14757     14757     14758     14757     14759     14757     14760
     14760     14761     14760     14762     14760     14763     14763     14764
     14763     14765     14763     14766     14766     14767     14766     14768
     14766     14769     14769     14770     14769     14771     14769     14772
     14772     14773     14772     14774     14772     14775     14723     14724
     14724     14726     14724     14725     14726     14727     14726     14728
     14726     14776     14776     14777     14776     14778     14776     14779
     14779     14780     14779     14781     14779     14782     14782     14783
     14782     14784     14782     14785     14785     14786     14785     14787
     14785     14788     14788     14789     14788     14790     14788     14791
     14791     14792     14791     14793     14791     14794     14794     14795
     14794     14796     14794     14797     14797     14798     14797     14799
     14797     14800     14800     14801     14800     14802     14800     14803
     14803     14804     14803     14805     14803     14806     14806     14807
     14806     14808     14806     14809     14809     14810     14809     14811
     14809     14812     14812     14813     14812     14814     14812     14815
     14815     14816     14815     14817     14815     14818     14819     14823
     14819     14827     14819     14831     14823     14824     14823     14825
     14823     14826     14827     14828     14827     14829     14827     14830
     14831     14832     14831     14833     14831     14834     14819     14820
     14820     14821     14820     14822     14820     14835     14835     14836
     14835     14837     14835     14841     14842     14843     14841     14838
     14838     14842     14838     14839     14838     14840     14843     14844
     14843     14845     14843     14846     14846     14847     14846     14854
     14846     14848     14854     14855     14854     14856     14854     14857
     14848     14849     14849     14851     14849     14850     14851     14852
     14851     14853     14851     14863     14863     14864     14863     14865
     14863     14866     14866     14867     14866     14868     14866     14869
     14869     14870     14869     14871     14869     14872     14872     14873
     14872     14874     14872     14875     14875     14876     14875     14877
     14875     14878     14878     14879     14878     14880     14878     14881
     14881     14882     14881     14883     14883     14884     14883     14885
     14885     14886     14885     14887     14885     14888     14888     14889
     14888     14890     14888     14891     14891     14892     14891     14893
     14891     14894     14894     14895     14894     14896     14894     14897
     14897     14898     14897     14899     14897     14900     14900     14901
     14900     14902     14900     14903     14903     14904     14903     14905
     14903     14906     14906     14907     14906     14908     14906     14909
     14857     14858     14858     14860     14858     14859     14860     14861
     14860     14862     14860     14910     14910     14911     14910     14912
     14910     14913     14913     14914     14913     14915     14913     14916
     14916     14917     14916     14918     14916     14919     14919     14920
     14919     14921     14919     14922     14922     14923     14922     14924
     14922     14925     14925     14926     14925     14927     14925     14928
     14928     14929     14928     14930     14928     14931     14931     14932
     14931     14933     14931     14934     14934     14935     14934     14936
     14934     14937     14937     14938     14937     14939     14937     14940
     14940     14941     14940     14942     14940     14943     14943     14944
     14943     14945     14943     14946     14946     14947     14946     14948
     14946     14949     14949     14950     14949     14951     14949     14952
     14953     14957     14953     14961     14953     14965     14957     14958
     14957     14959     14957     14960     14961     14962     14961     14963
     14961     14964     14965     14966     14965     14967     14965     14968
     14953     14954     14954     14955     14954     14956     14954     14969
     14969     14970     14969     14971     14969     14975     14976     14977
     14975     14972     14972     14976     14972     14973     14972     14974
     14977     14978     14977     14979     14977     14980     14980     14981
     14980     14988     14980     14982     14988     14989     14988     14990
     14988     14991     14982     14983     14983     14985     14983     14984
     14985     14986     14985     14987     14985     14997     14997     14998
     14997     14999     14997     15000     15000     15001     15000     15002
     15000     15003     15003     15004     15003     15005     15003     15006
     15006     15007     15006     15008     15006     15009     15009     15010
     15009     15011     15009     15012     15012     15013     15012     15014
     15012     15015     15015     15016     15015     15017     15017     15018
     15017     15019     15019     15020     15019     15021     15019     15022
     15022     15023     15022     15024     15022     15025     15025     15026
     15025     15027     15025     15028     15028     15029     15028     15030
     15028     15031     15031     15032     15031     15033     15031     15034
     15034     15035     15034     15036     15034     15037     15037     15038
     15037     15039     15037     15040     15040     15041     15040     15042
     15040     15043     14991     14992     14992     14994     14992     14993
     14994     14995     14994     14996     14994     15044     15044     15045
     15044     15046     15044     15047     15047     15048     15047     15049
     15047     15050     15050     15051     15050     15052     15050     15053
     15053     15054     15053     15055     15053     15056     15056     15057
     15056     15058     15056     15059     15059     15060     15059     15061
     15059     15062     15062     15063     15062     15064     15062     15065
     15065     15066     15065     15067     15065     15068     15068     15069
     15068     15070     15068     15071     15071     15072     15071     15073
     15071     15074     15074     15075     15074     15076     15074     15077
     15077     15078     15077     15079     15077     15080     15080     15081
     15080     15082     15080     15083     15083     15084     15083     15085
     15083     15086     15087     15088     15087     15089     15087     15090
     15087     15091     15095     15093     15093     15091     15093     15094
     15091     15092     15091     15096     15104     15103     15096     15097
     15096     15098     15096     15102     15102     15099     15099     15103
     15099     15100     15099     15101     15104     15105     15104     15106
     15104     15107     15107     15108     15107     15115     15107     15109
     15115     15116     15115     15117     15115     15118     15109     15110
     15110     15112     15110     15111     15112     15113     15112     15114
     15112     15124     15124     15125     15124     15126     15124     15127
     15127     15128     15127     15129     15127     15130     15130     15131
     15130     15132     15130     15133     15133     15134     15133     15135
     15133     15136     15136     15137     15136     15138     15136     15139
     15139     15140     15139     15141     15139     15142     15142     15143
     15142     15144     15144     15145     15144     15146     15146     15147
     15146     15148     15146     15149     15149     15150     15149     15151
     15149     15152     15152     15153     15152     15154     15152     15155
     15155     15156     15155     15157     15155     15158     15158     15159
     15158     15160     15158     15161     15161     15162     15161     15163
     15161     15164     15164     15165     15164     15166     15164     15167
     15167     15168     15167     15169     15167     15170     15118     15119
     15119     15121     15119     15120     15121     15122     15121     15123
     15121     15171     15171     15172     15171     15173     15171     15174
     15174     15175     15174     15176     15174     15177     15177     15178
     15177     15179     15177     15180     15180     15181     15180     15182
     15180     15183     15183     15184     15183     15185     15183     15186
     15186     15187     15186     15188     15186     15189     15189     15190
     15189     15191     15189     15192     15192     15193     15192     15194
     15192     15195     15195     15196     15195     15197     15195     15198
     15198     15199     15198     15200     15198     15201     15201     15202
     15201     15203     15201     15204     15204     15205     15204     15206
     15204     15207     15207     15208     15207     15209     15207     15210
     15210     15211     15210     15212     15210     15213     15214     15218
     15214     15222     15214     15226     15218     15219     15218     15220
     15218     15221     15222     15223     15222     15224     15222     15225
     15226     15227     15226     15228     15226     15229     15214     15215
     15215     15216     15215     15217     15215     15230     15230     15231
     15230     15232     15230     15236     15237     15238     15236     15233
     15233     15237     15233     15234     15233     15235     15238     15239
     15238     15240     15238     15241     15241     15242     15241     15249
     15241     15243     15249     15250     15249     15251     15249     15252
     15243     15244     15244     15246     15244     15245     15246     15247
     15246     15248     15246     15258     15258     15259     15258     15260
     15258     15261     15261     15262     15261     15263     15261     15264
     15264     15265     15264     15266     15264     15267     15267     15268
     15267     15269     15267     15270     15270     15271     15270     15272
     15270     15273     15273     15274     15273     15275     15273     15276
     15276     15277     15276     15278     15278     15279     15278     15280
     15280     15281     15280     15282     15280     15283     15283     15284
     15283     15285     15283     15286     15286     15287     15286     15288
     15286     15289     15289     15290     15289     15291     15289     15292
     15292     15293     15292     15294     15292     15295     15295     15296
     15295     15297     15295     15298     15298     15299     15298     15300
     15298     15301     15301     15302     15301     15303     15301     15304
     15252     15253     15253     15255     15253     15254     15255     15256
     15255     15257     15255     15305     15305     15306     15305     15307
     15305     15308     15308     15309     15308     15310     15308     15311
     15311     15312     15311     15313     15311     15314     15314     15315
     15314     15316     15314     15317     15317     15318     15317     15319
     15317     15320     15320     15321     15320     15322     15320     15323
     15323     15324     15323     15325     15323     15326     15326     15327
     15326     15328     15326     15329     15329     15330     15329     15331
     15329     15332     15332     15333     15332     15334     15332     15335
     15335     15336     15335     15337     15335     15338     15338     15339
     15338     15340     15338     15341     15341     15342     15341     15343
     15341     15344     15344     15345     15344     15346     15344     15347
     15348     15352     15348     15356     15348     15360     15352     15353
     15352     15354     15352     15355     15356     15357     15356     15358
     15356     15359     15360     15361     15360     15362     15360     15363
     15348     15349     15349     15350     15349     15351     15349     15364
     15364     15365     15364     15366     15364     15370     15371     15372
     15370     15367     15367     15371     15367     15368     15367     15369
     15372     15373     15372     15374     15372     15375     15375     15376
     15375     15383     15375     15377     15383     15384     15383     15385
     15383     15386     15377     15378     15378     15380     15378     15379
     15380     15381     15380     15382     15380     15392     15392     15393
     15392     15394     15392     15395     15395     15396     15395     15397
     15395     15398     15398     15399     15398     15400     15398     15401
     15401     15402     15401     15403     15401     15404     15404     15405
     15404     15406     15404     15407     15407     15408     15407     15409
     15407     15410     15410     15411     15410     15412     15412     15413
     15412     15414     15414     15415     15414     15416     15414     15417
     15417     15418     15417     15419     15417     15420     15420     15421
     15420     15422     15420     15423     15423     15424     15423     15425
     15423     15426     15426     15427     15426     15428     15426     15429
     15429     15430     15429     15431     15429     15432     15432     15433
     15432     15434     15432     15435     15435     15436     15435     15437
     15435     15438     15386     15387     15387     15389     15387     15388
     15389     15390     15389     15391     15389     15439     15439     15440
     15439     15441     15439     15442     15442     15443     15442     15444
     15442     15445     15445     15446     15445     15447     15445     15448
     15448     15449     15448     15450     15448     15451     15451     15452
     15451     15453     15451     15454     15454     15455     15454     15456
     15454     15457     15457     15458     15457     15459     15457     15460
     15460     15461     15460     15462     15460     15463     15463     15464
     15463     15465     15463     15466     15466     15467     15466     15468
     15466     15469     15469     15470     15469     15471     15469     15472
     15472     15473     15472     15474     15472     15475     15475     15476
     15475     15477     15475     15478     15478     15479     15478     15480
     15478     15481     15482     15486     15482     15490     15482     15494
     15486     15487     15486     15488     15486     15489     15490     15491
     15490     15492     15490     15493     15494     15495     15494     15496
     15494     15497     15482     15483     15483     15484     15483     15485
     15483     15498     15498     15499     15498     15500     15498     15504
     15505     15506     15504     15501     15501     15505     15501     15502
     15501     15503     15506     15507     15506     15508     15506     15509
     15509     15510     15509     15517     15509     15511     15517     15518
     15517     15519     15517     15520     15511     15512     15512     15514
     15512     15513     15514     15515     15514     15516     15514     15526
     15526     15527     15526     15528     15526     15529     15529     15530
     15529     15531     15529     15532     15532     15533     15532     15534
     15532     15535     15535     15536     15535     15537     15535     15538
     15538     15539     15538     15540     15538     15541     15541     15542
     15541     15543     15541     15544     15544     15545     15544     15546
     15546     15547     15546     15548     15548     15549     15548     15550
     15548     15551     15551     15552     15551     15553     15551     15554
     15554     15555     15554     15556     15554     15557     15557     15558
     15557     15559     15557     15560     15560     15561     15560     15562
     15560     15563     15563     15564     15563     15565     15563     15566
     15566     15567     15566     15568     15566     15569     15569     15570
     15569     15571     15569     15572     15520     15521     15521     15523
     15521     15522     15523     15524     15523     15525     15523     15573
     15573     15574     15573     15575     15573     15576     15576     15577
     15576     15578     15576     15579     15579     15580     15579     15581
     15579     15582     15582     15583     15582     15584     15582     15585
     15585     15586     15585     15587     15585     15588     15588     15589
     15588     15590     15588     15591     15591     15592     15591     15593
     15591     15594     15594     15595     15594     15596     15594     15597
     15597     15598     15597     15599     15597     15600     15600     15601
     15600     15602     15600     15603     15603     15604     15603     15605
     15603     15606     15606     15607     15606     15608     15606     15609
     15609     15610     15609     15611     15609     15612     15612     15613
     15612     15614     15612     15615     15616     15617     15616     15618
     15616     15619     15616     15620     15624     15622     15622     15620
     15622     15623     15620     15621     15620     15625     15633     15632
     15625     15626     15625     15627     15625     15631     15631     15628
     15628     15632     15628     15629     15628     15630     15633     15634
     15633     15635     15633     15636     15636     15637     15636     15644
     15636     15638     15644     15645     15644     15646     15644     15647
     15638     15639     15639     15641     15639     15640     15641     15642
     15641     15643     15641     15653     15653     15654     15653     15655
     15653     15656     15656     15657     15656     15658     15656     15659
     15659     15660     15659     15661     15659     15662     15662     15663
     15662     15664     15662     15665     15665     15666     15665     15667
     15665     15668     15668     15669     15668     15670     15668     15671
     15671     15672     15671     15673     15673     15674     15673     15675
     15675     15676     15675     15677     15675     15678     15678     15679
     15678     15680     15678     15681     15681     15682     15681     15683
     15681     15684     15684     15685     15684     15686     15684     15687
     15687     15688     15687     15689     15687     15690     15690     15691
     15690     15692     15690     15693     15693     15694     15693     15695
     15693     15696     15696     15697     15696     15698     15696     15699
     15647     15648     15648     15650     15648     15649     15650     15651
     15650     15652     15650     15700     15700     15701     15700     15702
     15700     15703     15703     15704     15703     15705     15703     15706
     15706     15707     15706     15708     15706     15709     15709     15710
     15709     15711     15709     15712     15712     15713     15712     15714
     15712     15715     15715     15716     15715     15717     15715     15718
     15718     15719     15718     15720     15718     15721     15721     15722
     15721     15723     15721     15724     15724     15725     15724     15726
     15724     15727     15727     15728     15727     15729     15727     15730
     15730     15731     15730     15732     15730     15733     15733     15734
     15733     15735     15733     15736     15736     15737     15736     15738
     15736     15739     15739     15740     15739     15741     15739     15742
     15743     15747     15743     15751     15743     15755     15747     15748
     15747     15749     15747     15750     15751     15752     15751     15753
     15751     15754     15755     15756     15755     15757     15755     15758
     15743     15744     15744     15745     15744     15746     15744     15759
     15759     15760     15759     15761     15759     15765     15766     15767
     15765     15762     15762     15766     15762     15763     15762     15764
     15767     15768     15767     15769     15767     15770     15770     15771
     15770     15778     15770     15772     15778     15779     15778     15780
     15778     15781     15772     15773     15773     15775     15773     15774
     15775     15776     15775     15777     15775     15787     15787     15788
     15787     15789     15787     15790     15790     15791     15790     15792
     15790     15793     15793     15794     15793     15795     15793     15796
     15796     15797     15796     15798     15796     15799     15799     15800
     15799     15801     15799     15802     15802     15803     15802     15804
     15802     15805     15805     15806     15805     15807     15807     15808
     15807     15809     15809     15810     15809     15811     15809     15812
     15812     15813     15812     15814     15812     15815     15815     15816
     15815     15817     15815     15818     15818     15819     15818     15820
     15818     15821     15821     15822     15821     15823     15821     15824
     15824     15825     15824     15826     15824     15827     15827     15828
     15827     15829     15827     15830     15830     15831     15830     15832
     15830     15833     15781     15782     15782     15784     15782     15783
     15784     15785     15784     15786     15784     15834     15834     15835
     15834     15836     15834     15837     15837     15838     15837     15839
     15837     15840     15840     15841     15840     15842     15840     15843
     15843     15844     15843     15845     15843     15846     15846     15847
     15846     15848     15846     15849     15849     15850     15849     15851
     15849     15852     15852     15853     15852     15854     15852     15855
     15855     15856     15855     15857     15855     15858     15858     15859
     15858     15860     15858     15861     15861     15862     15861     15863
     15861     15864     15864     15865     15864     15866     15864     15867
     15867     15868     15867     15869     15867     15870     15870     15871
     15870     15872     15870     15873     15873     15874     15873     15875
     15873     15876     15877     15881     15877     15885     15877     15889
     15881     15882     15881     15883     15881     15884     15885     15886
     15885     15887     15885     15888     15889     15890     15889     15891
     15889     15892     15877     15878     15878     15879     15878     15880
     15878     15893     15893     15894     15893     15895     15893     15899
     15900     15901     15899     15896     15896     15900     15896     15897
     15896     15898     15901     15902     15901     15903     15901     15904
     15904     15905     15904     15912     15904     15906     15912     15913
     15912     15914     15912     15915     15906     15907     15907     15909
     15907     15908     15909     15910     15909     15911     15909     15921
     15921     15922     15921     15923     15921     15924     15924     15925
     15924     15926     15924     15927     15927     15928     15927     15929
     15927     15930     15930     15931     15930     15932     15930     15933
     15933     15934     15933     15935     15933     15936     15936     15937
     15936     15938     15936     15939     15939     15940     15939     15941
     15941     15942     15941     15943     15943     15944     15943     15945
     15943     15946     15946     15947     15946     15948     15946     15949
     15949     15950     15949     15951     15949     15952     15952     15953
     15952     15954     15952     15955     15955     15956     15955     15957
     15955     15958     15958     15959     15958     15960     15958     15961
     15961     15962     15961     15963     15961     15964     15964     15965
     15964     15966     15964     15967     15915     15916     15916     15918
     15916     15917     15918     15919     15918     15920     15918     15968
     15968     15969     15968     15970     15968     15971     15971     15972
     15971     15973     15971     15974     15974     15975     15974     15976
     15974     15977     15977     15978     15977     15979     15977     15980
     15980     15981     15980     15982     15980     15983     15983     15984
     15983     15985     15983     15986     15986     15987     15986     15988
     15986     15989     15989     15990     15989     15991     15989     15992
     15992     15993     15992     15994     15992     15995     15995     15996
     15995     15997     15995     15998     15998     15999     15998     16000
     15998     16001     16001     16002     16001     16003     16001     16004
     16004     16005     16004     16006     16004     16007     16007     16008
     16007     16009     16007     16010     16011     16015     16011     16019
     16011     16023     16015     16016     16015     16017     16015     16018
     16019     16020     16019     16021     16019     16022     16023     16024
     16023     16025     16023     16026     16011     16012     16012     16013
     16012     16014     16012     16027     16027     16028     16027     16029
     16027     16033     16034     16035     16033     16030     16030     16034
     16030     16031     16030     16032     16035     16036     16035     16037
     16035     16038     16038     16039     16038     16046     16038     16040
     16046     16047     16046     16048     16046     16049     16040     16041
     16041     16043     16041     16042     16043     16044     16043     16045
     16043     16055     16055     16056     16055     16057     16055     16058
     16058     16059     16058     16060     16058     16061     16061     16062
     16061     16063     16061     16064     16064     16065     16064     16066
     16064     16067     16067     16068     16067     16069     16067     16070
     16070     16071     16070     16072     16070     16073     16073     16074
     16073     16075     16075     16076     16075     16077     16077     16078
     16077     16079     16077     16080     16080     16081     16080     16082
     16080     16083     16083     16084     16083     16085     16083     16086
     16086     16087     16086     16088     16086     16089     16089     16090
     16089     16091     16089     16092     16092     16093     16092     16094
     16092     16095     16095     16096     16095     16097     16095     16098
     16098     16099     16098     16100     16098     16101     16049     16050
     16050     16052     16050     16051     16052     16053     16052     16054
     16052     16102     16102     16103     16102     16104     16102     16105
     16105     16106     16105     16107     16105     16108     16108     16109
     16108     16110     16108     16111     16111     16112     16111     16113
     16111     16114     16114     16115     16114     16116     16114     16117
     16117     16118     16117     16119     16117     16120     16120     16121
     16120     16122     16120     16123     16123     16124     16123     16125
     16123     16126     16126     16127     16126     16128     16126     16129
     16129     16130     16129     16131     16129     16132     16132     16133
     16132     16134     16132     16135     16135     16136     16135     16137
     16135     16138     16138     16139     16138     16140     16138     16141
     16141     16142     16141     16143     16141     16144     16145     16149
     16145     16153     16145     16157     16149     16150     16149     16151
     16149     16152     16153     16154     16153     16155     16153     16156
     16157     16158     16157     16159     16157     16160     16145     16146
     16146     16147     16146     16148     16146     16161     16161     16162
     16161     16163     16161     16167     16168     16169     16167     16164
     16164     16168     16164     16165     16164     16166     16169     16170
     16169     16171     16169     16172     16172     16173     16172     16180
     16172     16174     16180     16181     16180     16182     16180     16183
     16174     16175     16175     16177     16175     16176     16177     16178
     16177     16179     16177     16189     16189     16190     16189     16191
     16189     16192     16192     16193     16192     16194     16192     16195
     16195     16196     16195     16197     16195     16198     16198     16199
     16198     16200     16198     16201     16201     16202     16201     16203
     16201     16204     16204     16205     16204     16206     16204     16207
     16207     16208     16207     16209     16209     16210     16209     16211
     16211     16212     16211     16213     16211     16214     16214     16215
     16214     16216     16214     16217     16217     16218     16217     16219
     16217     16220     16220     16221     16220     16222     16220     16223
     16223     16224     16223     16225     16223     16226     16226     16227
     16226     16228     16226     16229     16229     16230     16229     16231
     16229     16232     16232     16233     16232     16234     16232     16235
     16183     16184     16184     16186     16184     16185     16186     16187
     16186     16188     16186     16236     16236     16237     16236     16238
     16236     16239     16239     16240     16239     16241     16239     16242
     16242     16243     16242     16244     16242     16245     16245     16246
     16245     16247     16245     16248     16248     16249     16248     16250
     16248     16251     16251     16252     16251     16253     16251     16254
     16254     16255     16254     16256     16254     16257     16257     16258
     16257     16259     16257     16260     16260     16261     16260     16262
     16260     16263     16263     16264     16263     16265     16263     16266
     16266     16267     16266     16268     16266     16269     16269     16270
     16269     16271     16269     16272     16272     16273     16272     16274
     16272     16275     16275     16276     16275     16277     16275     16278
     16279     16283     16279     16287     16279     16291     16283     16284
     16283     16285     16283     16286     16287     16288     16287     16289
     16287     16290     16291     16292     16291     16293     16291     16294
     16279     16280     16280     16281     16280     16282     16280     16295
     16295     16296     16295     16297     16295     16301     16302     16303
     16301     16298     16298     16302     16298     16299     16298     16300
     16303     16304     16303     16305     16303     16306     16306     16307
     16306     16314     16306     16308     16314     16315     16314     16316
     16314     16317     16308     16309     16309     16311     16309     16310
     16311     16312     16311     16313     16311     16323     16323     16324
     16323     16325     16323     16326     16326     16327     16326     16328
     16326     16329     16329     16330     16329     16331     16329     16332
     16332     16333     16332     16334     16332     16335     16335     16336
     16335     16337     16335     16338     16338     16339     16338     16340
     16338     16341     16341     16342     16341     16343     16343     16344
     16343     16345     16345     16346     16345     16347     16345     16348
     16348     16349     16348     16350     16348     16351     16351     16352
     16351     16353     16351     16354     16354     16355     16354     16356
     16354     16357     16357     16358     16357     16359     16357     16360
     16360     16361     16360     16362     16360     16363     16363     16364
     16363     16365     16363     16366     16366     16367     16366     16368
     16366     16369     16317     16318     16318     16320     16318     16319
     16320     16321     16320     16322     16320     16370     16370     16371
     16370     16372     16370     16373     16373     16374     16373     16375
     16373     16376     16376     16377     16376     16378     16376     16379
     16379     16380     16379     16381     16379     16382     16382     16383
     16382     16384     16382     16385     16385     16386     16385     16387
     16385     16388     16388     16389     16388     16390     16388     16391
     16391     16392     16391     16393     16391     16394     16394     16395
     16394     16396     16394     16397     16397     16398     16397     16399
     16397     16400     16400     16401     16400     16402     16400     16403
     16403     16404     16403     16405     16403     16406     16406     16407
     16406     16408     16406     16409     16409     16410     16409     16411
     16409     16412     16413     16417     16413     16421     16413     16425
     16417     16418     16417     16419     16417     16420     16421     16422
     16421     16423     16421     16424     16425     16426     16425     16427
     16425     16428     16413     16414     16414     16415     16414     16416
     16414     16429     16429     16430     16429     16431     16429     16435
     16436     16437     16435     16432     16432     16436     16432     16433
     16432     16434     16437     16438     16437     16439     16437     16440
     16440     16441     16440     16448     16440     16442     16448     16449
     16448     16450     16448     16451     16442     16443     16443     16445
     16443     16444     16445     16446     16445     16447     16445     16457
     16457     16458     16457     16459     16457     16460     16460     16461
     16460     16462     16460     16463     16463     16464     16463     16465
     16463     16466     16466     16467     16466     16468     16466     16469
     16469     16470     16469     16471     16469     16472     16472     16473
     16472     16474     16472     16475     16475     16476     16475     16477
     16477     16478     16477     16479     16479     16480     16479     16481
     16479     16482     16482     16483     16482     16484     16482     16485
     16485     16486     16485     16487     16485     16488     16488     16489
     16488     16490     16488     16491     16491     16492     16491     16493
     16491     16494     16494     16495     16494     16496     16494     16497
     16497     16498     16497     16499     16497     16500     16500     16501
     16500     16502     16500     16503     16451     16452     16452     16454
     16452     16453     16454     16455     16454     16456     16454     16504
     16504     16505     16504     16506     16504     16507     16507     16508
     16507     16509     16507     16510     16510     16511     16510     16512
     16510     16513     16513     16514     16513     16515     16513     16516
     16516     16517     16516     16518     16516     16519     16519     16520
     16519     16521     16519     16522     16522     16523     16522     16524
     16522     16525     16525     16526     16525     16527     16525     16528
     16528     16529     16528     16530     16528     16531     16531     16532
     16531     16533     16531     16534     16534     16535     16534     16536
     16534     16537     16537     16538     16537     16539     16537     16540
     16540     16541     16540     16542     16540     16543     16543     16544
     16543     16545     16543     16546     16547     16551     16547     16555
     16547     16559     16551     16552     16551     16553     16551     16554
     16555     16556     16555     16557     16555     16558     16559     16560
     16559     16561     16559     16562     16547     16548     16548     16549
     16548     16550     16548     16563     16563     16564     16563     16565
     16563     16569     16570     16571     16569     16566     16566     16570
     16566     16567     16566     16568     16571     16572     16571     16573
     16571     16574     16574     16575     16574     16582     16574     16576
     16582     16583     16582     16584     16582     16585     16576     16577
     16577     16579     16577     16578     16579     16580     16579     16581
     16579     16591     16591     16592     16591     16593     16591     16594
     16594     16595     16594     16596     16594     16597     16597     16598
     16597     16599     16597     16600     16600     16601     16600     16602
     16600     16603     16603     16604     16603     16605     16603     16606
     16606     16607     16606     16608     16606     16609     16609     16610
     16609     16611     16611     16612     16611     16613     16613     16614
     16613     16615     16613     16616     16616     16617     16616     16618
     16616     16619     16619     16620     16619     16621     16619     16622
     16622     16623     16622     16624     16622     16625     16625     16626
     16625     16627     16625     16628     16628     16629     16628     16630
     16628     16631     16631     16632     16631     16633     16631     16634
     16634     16635     16634     16636     16634     16637     16585     16586
     16586     16588     16586     16587     16588     16589     16588     16590
     16588     16638     16638     16639     16638     16640     16638     16641
     16641     16642     16641     16643     16641     16644     16644     16645
     16644     16646     16644     16647     16647     16648     16647     16649
     16647     16650     16650     16651     16650     16652     16650     16653
     16653     16654     16653     16655     16653     16656     16656     16657
     16656     16658     16656     16659     16659     16660     16659     16661
     16659     16662     16662     16663     16662     16664     16662     16665
     16665     16666     16665     16667     16665     16668     16668     16669
     16668     16670     16668     16671     16671     16672     16671     16673
     16671     16674     16674     16675     16674     16676     16674     16677
     16677     16678     16677     16679     16677     16680     16681     16685
     16681     16689     16681     16693     16685     16686     16685     16687
     16685     16688     16689     16690     16689     16691     16689     16692
     16693     16694     16693     16695     16693     16696     16681     16682
     16682     16683     16682     16684     16682     16697     16697     16698
     16697     16699     16697     16703     16704     16705     16703     16700
     16700     16704     16700     16701     16700     16702     16705     16706
     16705     16707     16705     16708     16708     16709     16708     16716
     16708     16710     16716     16717     16716     16718     16716     16719
     16710     16711     16711     16713     16711     16712     16713     16714
     16713     16715     16713     16725     16725     16726     16725     16727
     16725     16728     16728     16729     16728     16730     16728     16731
     16731     16732     16731     16733     16731     16734     16734     16735
     16734     16736     16734     16737     16737     16738     16737     16739
     16737     16740     16740     16741     16740     16742     16740     16743
     16743     16744     16743     16745     16745     16746     16745     16747
     16747     16748     16747     16749     16747     16750     16750     16751
     16750     16752     16750     16753     16753     16754     16753     16755
     16753     16756     16756     16757     16756     16758     16756     16759
     16759     16760     16759     16761     16759     16762     16762     16763
     16762     16764     16762     16765     16765     16766     16765     16767
     16765     16768     16768     16769     16768     16770     16768     16771
     16719     16720     16720     16722     16720     16721     16722     16723
     16722     16724     16722     16772     16772     16773     16772     16774
     16772     16775     16775     16776     16775     16777     16775     16778
     16778     16779     16778     16780     16778     16781     16781     16782
     16781     16783     16781     16784     16784     16785     16784     16786
     16784     16787     16787     16788     16787     16789     16787     16790
     16790     16791     16790     16792     16790     16793     16793     16794
     16793     16795     16793     16796     16796     16797     16796     16798
     16796     16799     16799     16800     16799     16801     16799     16802
     16802     16803     16802     16804     16802     16805     16805     16806
     16805     16807     16805     16808     16808     16809     16808     16810
     16808     16811     16811     16812     16811     16813     16811     16814
     16815     16819     16815     16823     16815     16827     16819     16820
     16819     16821     16819     16822     16823     16824     16823     16825
     16823     16826     16827     16828     16827     16829     16827     16830
     16815     16816     16816     16817     16816     16818     16816     16831
     16831     16832     16831     16833     16831     16837     16838     16839
     16837     16834     16834     16838     16834     16835     16834     16836
     16839     16840     16839     16841     16839     16842     16842     16843
     16842     16850     16842     16844     16850     16851     16850     16852
     16850     16853     16844     16845     16845     16847     16845     16846
     16847     16848     16847     16849     16847     16859     16859     16860
     16859     16861     16859     16862     16862     16863     16862     16864
     16862     16865     16865     16866     16865     16867     16865     16868
     16868     16869     16868     16870     16868     16871     16871     16872
     16871     16873     16871     16874     16874     16875     16874     16876
     16874     16877     16877     16878     16877     16879     16879     16880
     16879     16881     16881     16882     16881     16883     16881     16884
     16884     16885     16884     16886     16884     16887     16887     16888
     16887     16889     16887     16890     16890     16891     16890     16892
     16890     16893     16893     16894     16893     16895     16893     16896
     16896     16897     16896     16898     16896     16899     16899     16900
     16899     16901     16899     16902     16902     16903     16902     16904
     16902     16905     16853     16854     16854     16856     16854     16855
     16856     16857     16856     16858     16856     16906     16906     16907
     16906     16908     16906     16909     16909     16910     16909     16911
     16909     16912     16912     16913     16912     16914     16912     16915
     16915     16916     16915     16917     16915     16918     16918     16919
     16918     16920     16918     16921     16921     16922     16921     16923
     16921     16924     16924     16925     16924     16926     16924     16927
     16927     16928     16927     16929     16927     16930     16930     16931
     16930     16932     16930     16933     16933     16934     16933     16935
     16933     16936     16936     16937     16936     16938     16936     16939
     16939     16940     16939     16941     16939     16942     16942     16943
     16942     16944     16942     16945     16945     16946     16945     16947
     16945     16948     16949     16953     16949     16957     16949     16961
     16953     16954     16953     16955     16953     16956     16957     16958
     16957     16959     16957     16960     16961     16962     16961     16963
     16961     16964     16949     16950     16950     16951     16950     16952
     16950     16965     16965     16966     16965     16967     16965     16971
     16972     16973     16971     16968     16968     16972     16968     16969
     16968     16970     16973     16974     16973     16975     16973     16976
     16976     16977     16976     16984     16976     16978     16984     16985
     16984     16986     16984     16987     16978     16979     16979     16981
     16979     16980     16981     16982     16981     16983     16981     16993
     16993     16994     16993     16995     16993     16996     16996     16997
     16996     16998     16996     16999     16999     17000     16999     17001
     16999     17002     17002     17003     17002     17004     17002     17005
     17005     17006     17005     17007     17005     17008     17008     17009
     17008     17010     17008     17011     17011     17012     17011     17013
     17013     17014     17013     17015     17015     17016     17015     17017
     17015     17018     17018     17019     17018     17020     17018     17021
     17021     17022     17021     17023     17021     17024     17024     17025
     17024     17026     17024     17027     17027     17028     17027     17029
     17027     17030     17030     17031     17030     17032     17030     17033
     17033     17034     17033     17035     17033     17036     17036     17037
     17036     17038     17036     17039     16987     16988     16988     16990
     16988     16989     16990     16991     16990     16992     16990     17040
     17040     17041     17040     17042     17040     17043     17043     17044
     17043     17045     17043     17046     17046     17047     17046     17048
     17046     17049     17049     17050     17049     17051     17049     17052
     17052     17053     17052     17054     17052     17055     17055     17056
     17055     17057     17055     17058     17058     17059     17058     17060
     17058     17061     17061     17062     17061     17063     17061     17064
     17064     17065     17064     17066     17064     17067     17067     17068
     17067     17069     17067     17070     17070     17071     17070     17072
     17070     17073     17073     17074     17073     17075     17073     17076
     17076     17077     17076     17078     17076     17079     17079     17080
     17079     17081     17079     17082     17083     17087     17083     17091
     17083     17095     17087     17088     17087     17089     17087     17090
     17091     17092     17091     17093     17091     17094     17095     17096
     17095     17097     17095     17098     17083     17084     17084     17085
     17084     17086     17084     17099     17099     17100     17099     17101
     17099     17105     17106     17107     17105     17102     17102     17106
     17102     17103     17102     17104     17107     17108     17107     17109
     17107     17110     17110     17111     17110     17118     17110     17112
     17118     17119     17118     17120     17118     17121     17112     17113
     17113     17115     17113     17114     17115     17116     17115     17117
     17115     17127     17127     17128     17127     17129     17127     17130
     17130     17131     17130     17132     17130     17133     17133     17134
     17133     17135     17133     17136     17136     17137     17136     17138
     17136     17139     17139     17140     17139     17141     17139     17142
     17142     17143     17142     17144     17142     17145     17145     17146
     17145     17147     17147     17148     17147     17149     17149     17150
     17149     17151     17149     17152     17152     17153     17152     17154
     17152     17155     17155     17156     17155     17157     17155     17158
     17158     17159     17158     17160     17158     17161     17161     17162
     17161     17163     17161     17164     17164     17165     17164     17166
     17164     17167     17167     17168     17167     17169     17167     17170
     17170     17171     17170     17172     17170     17173     17121     17122
     17122     17124     17122     17123     17124     17125     17124     17126
     17124     17174     17174     17175     17174     17176     17174     17177
     17177     17178     17177     17179     17177     17180     17180     17181
     17180     17182     17180     17183     17183     17184     17183     17185
     17183     17186     17186     17187     17186     17188     17186     17189
     17189     17190     17189     17191     17189     17192     17192     17193
     17192     17194     17192     17195     17195     17196     17195     17197
     17195     17198     17198     17199     17198     17200     17198     17201
     17201     17202     17201     17203     17201     17204     17204     17205
     17204     17206     17204     17207     17207     17208     17207     17209
     17207     17210     17210     17211     17210     17212     17210     17213
     17213     17214     17213     17215     17213     17216     17217     17221
     17217     17225     17217     17229     17221     17222     17221     17223
     17221     17224     17225     17226     17225     17227     17225     17228
     17229     17230     17229     17231     17229     17232     17217     17218
     17218     17219     17218     17220     17218     17233     17233     17234
     17233     17235     17233     17239     17240     17241     17239     17236
     17236     17240     17236     17237     17236     17238     17241     17242
     17241     17243     17241     17244     17244     17245     17244     17252
     17244     17246     17252     17253     17252     17254     17252     17255
     17246     17247     17247     17249     17247     17248     17249     17250
     17249     17251     17249     17261     17261     17262     17261     17263
     17261     17264     17264     17265     17264     17266     17264     17267
     17267     17268     17267     17269     17267     17270     17270     17271
     17270     17272     17270     17273     17273     17274     17273     17275
     17273     17276     17276     17277     17276     17278     17276     17279
     17279     17280     17279     17281     17281     17282     17281     17283
     17283     17284     17283     17285     17283     17286     17286     17287
     17286     17288     17286     17289     17289     17290     17289     17291
     17289     17292     17292     17293     17292     17294     17292     17295
     17295     17296     17295     17297     17295     17298     17298     17299
     17298     17300     17298     17301     17301     17302     17301     17303
     17301     17304     17304     17305     17304     17306     17304     17307
     17255     17256     17256     17258     17256     17257     17258     17259
     17258     17260     17258     17308     17308     17309     17308     17310
     17308     17311     17311     17312     17311     17313     17311     17314
     17314     17315     17314     17316     17314     17317     17317     17318
     17317     17319     17317     17320     17320     17321     17320     17322
     17320     17323     17323     17324     17323     17325     17323     17326
     17326     17327     17326     17328     17326     17329     17329     17330
     17329     17331     17329     17332     17332     17333     17332     17334
     17332     17335     17335     17336     17335     17337     17335     17338
     17338     17339     17338     17340     17338     17341     17341     17342
     17341     17343     17341     17344     17344     17345     17344     17346
     17344     17347     17347     17348     17347     17349     17347     17350
     17351     17352     17351     17353     17352     17353     17354     17355
     17354     17356     17355     17356     17357     17358     17357     17359
     17358     17359     17360     17361     17360     17362     17361     17362
     17363     17364     17363     17365     17364     17365     17366     17367
     17366     17368     17367     17368     17369     17370     17369     17371
     17370     17371     17372     17373     17372     17374     17373     17374
     17375     17376     17375     17377     17376     17377     17378     17379
     17378     17380     17379     17380     17381     17382     17381     17383
     17382     17383     17384     17385     17384     17386     17385     17386
     17387     17388     17387     17389     17388     17389     17390     17391
     17390     17392     17391     17392     17393     17394     17393     17395
     17394     17395     17396     17397     17396     17398     17397     17398
     17399     17400     17399     17401     17400     17401     17402     17403
     17402     17404     17403     17404     17405     17406     17405     17407
     17406     17407     17408     17409     17408     17410     17409     17410
     17411     17412     17411     17413     17412     17413     17414     17415
     17414     17416     17415     17416     17417     17418     17417     17419
     17418     17419     17420     17421     17420     17422     17421     17422
     17423     17424     17423     17425     17424     17425     17426     17427
     17426     17428     17427     17428     17429     17430     17429     17431
     17430     17431     17432     17433     17432     17434     17433     17434
     17435     17436     17435     17437     17436     17437     17438     17439
     17438     17440     17439     17440     17441     17442     17441     17443
     17442     17443     17444     17445     17444     17446     17445     17446
     17447     17448     17447     17449     17448     17449     17450     17451
     17450     17452     17451     17452     17453     17454     17453     17455
     17454     17455     17456     17457     17456     17458     17457     17458
     17459     17460     17459     17461     17460     17461     17462     17463
     17462     17464     17463     17464     17465     17466     17465     17467
     17466     17467     17468     17469     17468     17470     17469     17470
     17471     17472     17471     17473     17472     17473     17474     17475
     17474     17476     17475     17476     17477     17478     17477     17479
     17478     17479     17480     17481     17480     17482     17481     17482
     17483     17484     17483     17485     17484     17485     17486     17487
     17486     17488     17487     17488     17489     17490     17489     17491
     17490     17491     17492     17493     17492     17494     17493     17494
     17495     17496     17495     17497     17496     17497     17498     17499
     17498     17500     17499     17500     17501     17502     17501     17503
     17502     17503     17504     17505     17504     17506     17505     17506
     17507     17508     17507     17509     17508     17509     17510     17511
     17510     17512     17511     17512     17513     17514     17513     17515
     17514     17515     17516     17517     17516     17518     17517     17518
     17519     17520     17519     17521     17520     17521     17522     17523
     17522     17524     17523     17524     17525     17526     17525     17527
     17526     17527     17528     17529     17528     17530     17529     17530
     17531     17532     17531     17533     17532     17533     17534     17535
     17534     17536     17535     17536     17537     17538     17537     17539
     17538     17539     17540     17541     17540     17542     17541     17542
     17543     17544     17543     17545     17544     17545     17546     17547
     17546     17548     17547     17548     17549     17550     17549     17551
     17550     17551     17552     17553     17552     17554     17553     17554
     17555     17556     17555     17557     17556     17557     17558     17559
     17558     17560     17559     17560     17561     17562     17561     17563
     17562     17563     17564     17565     17564     17566     17565     17566
     17567     17568     17567     17569     17568     17569     17570     17571
     17570     17572     17571     17572     17573     17574     17573     17575
     17574     17575     17576     17577     17576     17578     17577     17578
     17579     17580     17579     17581     17580     17581     17582     17583
     17582     17584     17583     17584     17585     17586     17585     17587
     17586     17587     17588     17589     17588     17590     17589     17590
     17591     17592     17591     17593     17592     17593     17594     17595
     17594     17596     17595     17596     17597     17598     17597     17599
     17598     17599     17600     17601     17600     17602     17601     17602
     17603     17604     17603     17605     17604     17605     17606     17607
     17606     17608     17607     17608     17609     17610     17609     17611
     17610     17611     17612     17613     17612     17614     17613     17614
     17615     17616     17615     17617     17616     17617     17618     17619
     17618     17620     17619     17620     17621     17622     17621     17623
     17622     17623     17624     17625     17624     17626     17625     17626
     17627     17628     17627     17629     17628     17629     17630     17631
     17630     17632     17631     17632     17633     17634     17633     17635
     17634     17635     17636     17637     17636     17638     17637     17638
     17639     17640     17639     17641     17640     17641     17642     17643
     17642     17644     17643     17644     17645     17646     17645     17647
     17646     17647     17648     17649     17648     17650     17649     17650
     17651     17652     17651     17653     17652     17653     17654     17655
     17654     17656     17655     17656     17657     17658     17657     17659
     17658     17659     17660     17661     17660     17662     17661     17662
     17663     17664     17663     17665     17664     17665     17666     17667
     17666     17668     17667     17668     17669     17670     17669     17671
     17670     17671     17672     17673     17672     17674     17673     17674
     17675     17676     17675     17677     17676     17677     17678     17679
     17678     17680     17679     17680     17681     17682     17681     17683
     17682     17683     17684     17685     17684     17686     17685     17686
     17687     17688     17687     17689     17688     17689     17690     17691
     17690     17692     17691     17692     17693     17694     17693     17695
     17694     17695     17696     17697     17696     17698     17697     17698
     17699     17700     17699     17701     17700     17701     17702     17703
     17702     17704     17703     17704     17705     17706     17705     17707
     17706     17707     17708     17709     17708     17710     17709     17710
     17711     17712     17711     17713     17712     17713     17714     17715
     17714     17716     17715     17716     17717     17718     17717     17719
     17718     17719     17720     17721     17720     17722     17721     17722
     17723     17724     17723     17725     17724     17725     17726     17727
     17726     17728     17727     17728     17729     17730     17729     17731
     17730     17731     17732     17733     17732     17734     17733     17734
     17735     17736     17735     17737     17736     17737     17738     17739
     17738     17740     17739     17740     17741     17742     17741     17743
     17742     17743     17744     17745     17744     17746     17745     17746
     17747     17748     17747     17749     17748     17749     17750     17751
     17750     17752     17751     17752     17753     17754     17753     17755
     17754     17755     17756     17757     17756     17758     17757     17758
     17759     17760     17759     17761     17760     17761     17762     17763
     17762     17764     17763     17764     17765     17766     17765     17767
     17766     17767     17768     17769     17768     17770     17769     17770
     17771     17772     17771     17773     17772     17773     17774     17775
     17774     17776     17775     17776     17777     17778     17777     17779
     17778     17779     17780     17781     17780     17782     17781     17782
     17783     17784     17783     17785     17784     17785     17786     17787
     17786     17788     17787     17788     17789     17790     17789     17791
     17790     17791     17792     17793     17792     17794     17793     17794
     17795     17796     17795     17797     17796     17797     17798     17799
     17798     17800     17799     17800     17801     17802     17801     17803
     17802     17803     17804     17805     17804     17806     17805     17806
     17807     17808     17807     17809     17808     17809     17810     17811
     17810     17812     17811     17812     17813     17814     17813     17815
     17814     17815     17816     17817     17816     17818     17817     17818
     17819     17820     17819     17821     17820     17821     17822     17823
     17822     17824     17823     17824     17825     17826     17825     17827
     17826     17827     17828     17829     17828     17830     17829     17830
     17831     17832     17831     17833     17832     17833     17834     17835
     17834     17836     17835     17836     17837     17838     17837     17839
     17838     17839     17840     17841     17840     17842     17841     17842
     17843     17844     17843     17845     17844     17845     17846     17847
     17846     17848     17847     17848     17849     17850     17849     17851
     17850     17851     17852     17853     17852     17854     17853     17854
     17855     17856     17855     17857     17856     17857     17858     17859
     17858     17860     17859     17860     17861     17862     17861     17863
     17862     17863     17864     17865     17864     17866     17865     17866
     17867     17868     17867     17869     17868     17869     17870     17871
     17870     17872     17871     17872     17873     17874     17873     17875
     17874     17875     17876     17877     17876     17878     17877     17878
     17879     17880     17879     17881     17880     17881     17882     17883
     17882     17884     17883     17884     17885     17886     17885     17887
     17886     17887     17888     17889     17888     17890     17889     17890
     17891     17892     17891     17893     17892     17893     17894     17895
     17894     17896     17895     17896     17897     17898     17897     17899
     17898     17899     17900     17901     17900     17902     17901     17902
     17903     17904     17903     17905     17904     17905     17906     17907
     17906     17908     17907     17908     17909     17910     17909     17911
     17910     17911     17912     17913     17912     17914     17913     17914
     17915     17916     17915     17917     17916     17917     17918     17919
     17918     17920     17919     17920     17921     17922     17921     17923
     17922     17923     17924     17925     17924     17926     17925     17926
     17927     17928     17927     17929     17928     17929     17930     17931
     17930     17932     17931     17932     17933     17934     17933     17935
     17934     17935     17936     17937     17936     17938     17937     17938
     17939     17940     17939     17941     17940     17941     17942     17943
     17942     17944     17943     17944     17945     17946     17945     17947
     17946     17947     17948     17949     17948     17950     17949     17950
     17951     17952     17951     17953     17952     17953     17954     17955
     17954     17956     17955     17956     17957     17958     17957     17959
     17958     17959     17960     17961     17960     17962     17961     17962
     17963     17964     17963     17965     17964     17965     17966     17967
     17966     17968     17967     17968     17969     17970     17969     17971
     17970     17971     17972     17973     17972     17974     17973     17974
     17975     17976     17975     17977     17976     17977     17978     17979
     17978     17980     17979     17980     17981     17982     17981     17983
     17982     17983     17984     17985     17984     17986     17985     17986
     17987     17988     17987     17989     17988     17989     17990     17991
     17990     17992     17991     17992     17993     17994     17993     17995
     17994     17995     17996     17997     17996     17998     17997     17998
     17999     18000     17999     18001     18000     18001     18002     18003
     18002     18004     18003     18004     18005     18006     18005     18007
     18006     18007     18008     18009     18008     18010     18009     18010
     18011     18012     18011     18013     18012     18013     18014     18015
     18014     18016     18015     18016     18017     18018     18017     18019
     18018     18019     18020     18021     18020     18022     18021     18022
     18023     18024     18023     18025     18024     18025     18026     18027
     18026     18028     18027     18028     18029     18030     18029     18031
     18030     18031     18032     18033     18032     18034     18033     18034
     18035     18036     18035     18037     18036     18037     18038     18039
     18038     18040     18039     18040     18041     18042     18041     18043
     18042     18043     18044     18045     18044     18046     18045     18046
     18047     18048     18047     18049     18048     18049     18050     18051
     18050     18052     18051     18052     18053     18054     18053     18055
     18054     18055     18056     18057     18056     18058     18057     18058
     18059     18060     18059     18061     18060     18061     18062     18063
     18062     18064     18063     18064     18065     18066     18065     18067
     18066     18067     18068     18069     18068     18070     18069     18070
     18071     18072     18071     18073     18072     18073     18074     18075
     18074     18076     18075     18076     18077     18078     18077     18079
     18078     18079     18080     18081     18080     18082     18081     18082
     18083     18084     18083     18085     18084     18085     18086     18087
     18086     18088     18087     18088     18089     18090     18089     18091
     18090     18091     18092     18093     18092     18094     18093     18094
     18095     18096     18095     18097     18096     18097     18098     18099
     18098     18100     18099     18100     18101     18102     18101     18103
     18102     18103     18104     18105     18104     18106     18105     18106
     18107     18108     18107     18109     18108     18109     18110     18111
     18110     18112     18111     18112     18113     18114     18113     18115
     18114     18115     18116     18117     18116     18118     18117     18118
     18119     18120     18119     18121     18120     18121     18122     18123
     18122     18124     18123     18124     18125     18126     18125     18127
     18126     18127     18128     18129     18128     18130     18129     18130
     18131     18132     18131     18133     18132     18133     18134     18135
     18134     18136     18135     18136     18137     18138     18137     18139
     18138     18139     18140     18141     18140     18142     18141     18142
     18143     18144     18143     18145     18144     18145     18146     18147
     18146     18148     18147     18148     18149     18150     18149     18151
     18150     18151     18152     18153     18152     18154     18153     18154
     18155     18156     18155     18157     18156     18157     18158     18159
     18158     18160     18159     18160     18161     18162     18161     18163
     18162     18163     18164     18165     18164     18166     18165     18166
     18167     18168     18167     18169     18168     18169     18170     18171
     18170     18172     18171     18172     18173     18174     18173     18175
     18174     18175     18176     18177     18176     18178     18177     18178
     18179     18180     18179     18181     18180     18181     18182     18183
     18182     18184     18183     18184     18185     18186     18185     18187
     18186     18187     18188     18189     18188     18190     18189     18190
     18191     18192     18191     18193     18192     18193     18194     18195
     18194     18196     18195     18196     18197     18198     18197     18199
     18198     18199     18200     18201     18200     18202     18201     18202
     18203     18204     18203     18205     18204     18205     18206     18207
     18206     18208     18207     18208     18209     18210     18209     18211
     18210     18211     18212     18213     18212     18214     18213     18214
     18215     18216     18215     18217     18216     18217     18218     18219
     18218     18220     18219     18220     18221     18222     18221     18223
     18222     18223     18224     18225     18224     18226     18225     18226
     18227     18228     18227     18229     18228     18229     18230     18231
     18230     18232     18231     18232     18233     18234     18233     18235
     18234     18235     18236     18237     18236     18238     18237     18238
     18239     18240     18239     18241     18240     18241     18242     18243
     18242     18244     18243     18244     18245     18246     18245     18247
     18246     18247     18248     18249     18248     18250     18249     18250
     18251     18252     18251     18253     18252     18253     18254     18255
     18254     18256     18255     18256     18257     18258     18257     18259
     18258     18259     18260     18261     18260     18262     18261     18262
     18263     18264     18263     18265     18264     18265     18266     18267
     18266     18268     18267     18268     18269     18270     18269     18271
     18270     18271     18272     18273     18272     18274     18273     18274
     18275     18276     18275     18277     18276     18277     18278     18279
     18278     18280     18279     18280     18281     18282     18281     18283
     18282     18283     18284     18285     18284     18286     18285     18286
     18287     18288     18287     18289     18288     18289     18290     18291
     18290     18292     18291     18292     18293     18294     18293     18295
     18294     18295     18296     18297     18296     18298     18297     18298
     18299     18300     18299     18301     18300     18301     18302     18303
     18302     18304     18303     18304     18305     18306     18305     18307
     18306     18307     18308     18309     18308     18310     18309     18310
     18311     18312     18311     18313     18312     18313     18314     18315
     18314     18316     18315     18316     18317     18318     18317     18319
     18318     18319     18320     18321     18320     18322     18321     18322
     18323     18324     18323     18325     18324     18325     18326     18327
     18326     18328     18327     18328     18329     18330     18329     18331
     18330     18331     18332     18333     18332     18334     18333     18334
     18335     18336     18335     18337     18336     18337     18338     18339
     18338     18340     18339     18340     18341     18342     18341     18343
     18342     18343     18344     18345     18344     18346     18345     18346
     18347     18348     18347     18349     18348     18349     18350     18351
     18350     18352     18351     18352     18353     18354     18353     18355
     18354     18355     18356     18357     18356     18358     18357     18358
     18359     18360     18359     18361     18360     18361     18362     18363
     18362     18364     18363     18364     18365     18366     18365     18367
     18366     18367     18368     18369     18368     18370     18369     18370
     18371     18372     18371     18373     18372     18373     18374     18375
     18374     18376     18375     18376     18377     18378     18377     18379
     18378     18379     18380     18381     18380     18382     18381     18382
     18383     18384     18383     18385     18384     18385     18386     18387
     18386     18388     18387     18388     18389     18390     18389     18391
     18390     18391     18392     18393     18392     18394     18393     18394
     18395     18396     18395     18397     18396     18397     18398     18399
     18398     18400     18399     18400     18401     18402     18401     18403
     18402     18403     18404     18405     18404     18406     18405     18406
     18407     18408     18407     18409     18408     18409     18410     18411
     18410     18412     18411     18412     18413     18414     18413     18415
     18414     18415     18416     18417     18416     18418     18417     18418
     18419     18420     18419     18421     18420     18421     18422     18423
     18422     18424     18423     18424     18425     18426     18425     18427
     18426     18427     18428     18429     18428     18430     18429     18430
     18431     18432     18431     18433     18432     18433     18434     18435
     18434     18436     18435     18436     18437     18438     18437     18439
     18438     18439     18440     18441     18440     18442     18441     18442
     18443     18444     18443     18445     18444     18445     18446     18447
     18446     18448     18447     18448     18449     18450     18449     18451
     18450     18451     18452     18453     18452     18454     18453     18454
     18455     18456     18455     18457     18456     18457     18458     18459
     18458     18460     18459     18460     18461     18462     18461     18463
     18462     18463     18464     18465     18464     18466     18465     18466
     18467     18468     18467     18469     18468     18469     18470     18471
     18470     18472     18471     18472     18473     18474     18473     18475
     18474     18475     18476     18477     18476     18478     18477     18478
     18479     18480     18479     18481     18480     18481     18482     18483
     18482     18484     18483     18484     18485     18486     18485     18487
     18486     18487     18488     18489     18488     18490     18489     18490
     18491     18492     18491     18493     18492     18493     18494     18495
     18494     18496     18495     18496     18497     18498     18497     18499
     18498     18499     18500     18501     18500     18502     18501     18502
     18503     18504     18503     18505     18504     18505     18506     18507
     18506     18508     18507     18508     18509     18510     18509     18511
     18510     18511     18512     18513     18512     18514     18513     18514
     18515     18516     18515     18517     18516     18517     18518     18519
     18518     18520     18519     18520     18521     18522     18521     18523
     18522     18523     18524     18525     18524     18526     18525     18526
     18527     18528     18527     18529     18528     18529     18530     18531
     18530     18532     18531     18532     18533     18534     18533     18535
     18534     18535     18536     18537     18536     18538     18537     18538
     18539     18540     18539     18541     18540     18541     18542     18543
     18542     18544     18543     18544     18545     18546     18545     18547
     18546     18547     18548     18549     18548     18550     18549     18550
     18551     18552     18551     18553     18552     18553     18554     18555
     18554     18556     18555     18556     18557     18558     18557     18559
     18558     18559     18560     18561     18560     18562     18561     18562
     18563     18564     18563     18565     18564     18565     18566     18567
     18566     18568     18567     18568     18569     18570     18569     18571
     18570     18571     18572     18573     18572     18574     18573     18574
     18575     18576     18575     18577     18576     18577     18578     18579
     18578     18580     18579     18580     18581     18582     18581     18583
     18582     18583     18584     18585     18584     18586     18585     18586
     18587     18588     18587     18589     18588     18589     18590     18591
     18590     18592     18591     18592     18593     18594     18593     18595
     18594     18595     18596     18597     18596     18598     18597     18598
     18599     18600     18599     18601     18600     18601     18602     18603
     18602     18604     18603     18604     18605     18606     18605     18607
     18606     18607     18608     18609     18608     18610     18609     18610
     18611     18612     18611     18613     18612     18613     18614     18615
     18614     18616     18615     18616     18617     18618     18617     18619
     18618     18619     18620     18621     18620     18622     18621     18622
     18623     18624     18623     18625     18624     18625     18626     18627
     18626     18628     18627     18628     18629     18630     18629     18631
     18630     18631     18632     18633     18632     18634     18633     18634
     18635     18636     18635     18637     18636     18637     18638     18639
     18638     18640     18639     18640     18641     18642     18641     18643
     18642     18643     18644     18645     18644     18646     18645     18646
     18647     18648     18647     18649     18648     18649     18650     18651
     18650     18652     18651     18652     18653     18654     18653     18655
     18654     18655     18656     18657     18656     18658     18657     18658
     18659     18660     18659     18661     18660     18661     18662     18663
     18662     18664     18663     18664     18665     18666     18665     18667
     18666     18667     18668     18669     18668     18670     18669     18670
     18671     18672     18671     18673     18672     18673     18674     18675
     18674     18676     18675     18676     18677     18678     18677     18679
     18678     18679     18680     18681     18680     18682     18681     18682
     18683     18684     18683     18685     18684     18685     18686     18687
     18686     18688     18687     18688     18689     18690     18689     18691
     18690     18691     18692     18693     18692     18694     18693     18694
     18695     18696     18695     18697     18696     18697     18698     18699
     18698     18700     18699     18700     18701     18702     18701     18703
     18702     18703     18704     18705     18704     18706     18705     18706
     18707     18708     18707     18709     18708     18709     18710     18711
     18710     18712     18711     18712     18713     18714     18713     18715
     18714     18715     18716     18717     18716     18718     18717     18718
     18719     18720     18719     18721     18720     18721     18722     18723
     18722     18724     18723     18724     18725     18726     18725     18727
     18726     18727     18728     18729     18728     18730     18729     18730
     18731     18732     18731     18733     18732     18733     18734     18735
     18734     18736     18735     18736     18737     18738     18737     18739
     18738     18739     18740     18741     18740     18742     18741     18742
     18743     18744     18743     18745     18744     18745     18746     18747
     18746     18748     18747     18748     18749     18750     18749     18751
     18750     18751     18752     18753     18752     18754     18753     18754
     18755     18756     18755     18757     18756     18757     18758     18759
     18758     18760     18759     18760     18761     18762     18761     18763
     18762     18763     18764     18765     18764     18766     18765     18766
     18767     18768     18767     18769     18768     18769     18770     18771
     18770     18772     18771     18772     18773     18774     18773     18775
     18774     18775     18776     18777     18776     18778     18777     18778
     18779     18780     18779     18781     18780     18781     18782     18783
     18782     18784     18783     18784     18785     18786     18785     18787
     18786     18787     18788     18789     18788     18790     18789     18790
     18791     18792     18791     18793     18792     18793     18794     18795
     18794     18796     18795     18796     18797     18798     18797     18799
     18798     18799     18800     18801     18800     18802     18801     18802
     18803     18804     18803     18805     18804     18805     18806     18807
     18806     18808     18807     18808     18809     18810     18809     18811
     18810     18811     18812     18813     18812     18814     18813     18814
     18815     18816     18815     18817     18816     18817     18818     18819
     18818     18820     18819     18820     18821     18822     18821     18823
     18822     18823     18824     18825     18824     18826     18825     18826
     18827     18828     18827     18829     18828     18829     18830     18831
     18830     18832     18831     18832     18833     18834     18833     18835
     18834     18835     18836     18837     18836     18838     18837     18838
     18839     18840     18839     18841     18840     18841     18842     18843
     18842     18844     18843     18844     18845     18846     18845     18847
     18846     18847     18848     18849     18848     18850     18849     18850
     18851     18852     18851     18853     18852     18853     18854     18855
     18854     18856     18855     18856     18857     18858     18857     18859
     18858     18859     18860     18861     18860     18862     18861     18862
     18863     18864     18863     18865     18864     18865     18866     18867
     18866     18868     18867     18868     18869     18870     18869     18871
     18870     18871     18872     18873     18872     18874     18873     18874
     18875     18876     18875     18877     18876     18877     18878     18879
     18878     18880     18879     18880     18881     18882     18881     18883
     18882     18883     18884     18885     18884     18886     18885     18886
     18887     18888     18887     18889     18888     18889     18890     18891
     18890     18892     18891     18892     18893     18894     18893     18895
     18894     18895     18896     18897     18896     18898     18897     18898
     18899     18900     18899     18901     18900     18901     18902     18903
     18902     18904     18903     18904     18905     18906     18905     18907
     18906     18907     18908     18909     18908     18910     18909     18910
     18911     18912     18911     18913     18912     18913     18914     18915
     18914     18916     18915     18916     18917     18918     18917     18919
     18918     18919     18920     18921     18920     18922     18921     18922
     18923     18924     18923     18925     18924     18925     18926     18927
     18926     18928     18927     18928     18929     18930     18929     18931
     18930     18931     18932     18933     18932     18934     18933     18934
     18935     18936     18935     18937     18936     18937     18938     18939
     18938     18940     18939     18940     18941     18942     18941     18943
     18942     18943     18944     18945     18944     18946     18945     18946
     18947     18948     18947     18949     18948     18949     18950     18951
     18950     18952     18951     18952     18953     18954     18953     18955
     18954     18955     18956     18957     18956     18958     18957     18958
     18959     18960     18959     18961     18960     18961     18962     18963
     18962     18964     18963     18964     18965     18966     18965     18967
     18966     18967     18968     18969     18968     18970     18969     18970
     18971     18972     18971     18973     18972     18973     18974     18975
     18974     18976     18975     18976     18977     18978     18977     18979
     18978     18979     18980     18981     18980     18982     18981     18982
     18983     18984     18983     18985     18984     18985     18986     18987
     18986     18988     18987     18988     18989     18990     18989     18991
     18990     18991     18992     18993     18992     18994     18993     18994
     18995     18996     18995     18997     18996     18997     18998     18999
     18998     19000     18999     19000     19001     19002     19001     19003
     19002     19003     19004     19005     19004     19006     19005     19006
     19007     19008     19007     19009     19008     19009     19010     19011
     19010     19012     19011     19012     19013     19014     19013     19015
     19014     19015     19016     19017     19016     19018     19017     19018
     19019     19020     19019     19021     19020     19021     19022     19023
     19022     19024     19023     19024     19025     19026     19025     19027
     19026     19027     19028     19029     19028     19030     19029     19030
     19031     19032     19031     19033     19032     19033     19034     19035
     19034     19036     19035     19036     19037     19038     19037     19039
     19038     19039     19040     19041     19040     19042     19041     19042
     19043     19044     19043     19045     19044     19045     19046     19047
     19046     19048     19047     19048     19049     19050     19049     19051
     19050     19051     19052     19053     19052     19054     19053     19054
     19055     19056     19055     19057     19056     19057     19058     19059
     19058     19060     19059     19060     19061     19062     19061     19063
     19062     19063     19064     19065     19064     19066     19065     19066
     19067     19068     19067     19069     19068     19069     19070     19071
     19070     19072     19071     19072     19073     19074     19073     19075
     19074     19075     19076     19077     19076     19078     19077     19078
     19079     19080     19079     19081     19080     19081     19082     19083
     19082     19084     19083     19084     19085     19086     19085     19087
     19086     19087     19088     19089     19088     19090     19089     19090
     19091     19092     19091     19093     19092     19093     19094     19095
     19094     19096     19095     19096     19097     19098     19097     19099
     19098     19099     19100     19101     19100     19102     19101     19102
     19103     19104     19103     19105     19104     19105     19106     19107
     19106     19108     19107     19108     19109     19110     19109     19111
     19110     19111     19112     19113     19112     19114     19113     19114
     19115     19116     19115     19117     19116     19117     19118     19119
     19118     19120     19119     19120     19121     19122     19121     19123
     19122     19123     19124     19125     19124     19126     19125     19126
     19127     19128     19127     19129     19128     19129     19130     19131
     19130     19132     19131     19132     19133     19134     19133     19135
     19134     19135     19136     19137     19136     19138     19137     19138
     19139     19140     19139     19141     19140     19141     19142     19143
     19142     19144     19143     19144     19145     19146     19145     19147
     19146     19147     19148     19149     19148     19150     19149     19150
     19151     19152     19151     19153     19152     19153     19154     19155
     19154     19156     19155     19156     19157     19158     19157     19159
     19158     19159     19160     19161     19160     19162     19161     19162
     19163     19164     19163     19165     19164     19165     19166     19167
     19166     19168     19167     19168     19169     19170     19169     19171
     19170     19171     19172     19173     19172     19174     19173     19174
     19175     19176     19175     19177     19176     19177     19178     19179
     19178     19180     19179     19180     19181     19182     19181     19183
     19182     19183     19184     19185     19184     19186     19185     19186
     19187     19188     19187     19189     19188     19189     19190     19191
     19190     19192     19191     19192     19193     19194     19193     19195
     19194     19195     19196     19197     19196     19198     19197     19198
     19199     19200     19199     19201     19200     19201     19202     19203
     19202     19204     19203     19204     19205     19206     19205     19207
     19206     19207     19208     19209     19208     19210     19209     19210
     19211     19212     19211     19213     19212     19213     19214     19215
     19214     19216     19215     19216     19217     19218     19217     19219
     19218     19219     19220     19221     19220     19222     19221     19222
     19223     19224     19223     19225     19224     19225     19226     19227
     19226     19228     19227     19228     19229     19230     19229     19231
     19230     19231     19232     19233     19232     19234     19233     19234
     19235     19236     19235     19237     19236     19237     19238     19239
     19238     19240     19239     19240     19241     19242     19241     19243
     19242     19243     19244     19245     19244     19246     19245     19246
     19247     19248     19247     19249     19248     19249     19250     19251
     19250     19252     19251     19252     19253     19254     19253     19255
     19254     19255     19256     19257     19256     19258     19257     19258
     19259     19260     19259     19261     19260     19261     19262     19263
     19262     19264     19263     19264     19265     19266     19265     19267
     19266     19267     19268     19269     19268     19270     19269     19270
     19271     19272     19271     19273     19272     19273     19274     19275
     19274     19276     19275     19276     19277     19278     19277     19279
     19278     19279     19280     19281     19280     19282     19281     19282
     19283     19284     19283     19285     19284     19285     19286     19287
     19286     19288     19287     19288     19289     19290     19289     19291
     19290     19291     19292     19293     19292     19294     19293     19294
     19295     19296     19295     19297     19296     19297     19298     19299
     19298     19300     19299     19300     19301     19302     19301     19303
     19302     19303     19304     19305     19304     19306     19305     19306
     19307     19308     19307     19309     19308     19309     19310     19311
     19310     19312     19311     19312     19313     19314     19313     19315
     19314     19315     19316     19317     19316     19318     19317     19318
     19319     19320     19319     19321     19320     19321     19322     19323
     19322     19324     19323     19324     19325     19326     19325     19327
     19326     19327     19328     19329     19328     19330     19329     19330
     19331     19332     19331     19333     19332     19333     19334     19335
     19334     19336     19335     19336     19337     19338     19337     19339
     19338     19339     19340     19341     19340     19342     19341     19342
     19343     19344     19343     19345     19344     19345     19346     19347
     19346     19348     19347     19348     19349     19350     19349     19351
     19350     19351     19352     19353     19352     19354     19353     19354
     19355     19356     19355     19357     19356     19357     19358     19359
     19358     19360     19359     19360     19361     19362     19361     19363
     19362     19363     19364     19365     19364     19366     19365     19366
     19367     19368     19367     19369     19368     19369     19370     19371
     19370     19372     19371     19372     19373     19374     19373     19375
     19374     19375     19376     19377     19376     19378     19377     19378
     19379     19380     19379     19381     19380     19381     19382     19383
     19382     19384     19383     19384     19385     19386     19385     19387
     19386     19387     19388     19389     19388     19390     19389     19390
     19391     19392     19391     19393     19392     19393     19394     19395
     19394     19396     19395     19396     19397     19398     19397     19399
     19398     19399     19400     19401     19400     19402     19401     19402
     19403     19404     19403     19405     19404     19405     19406     19407
     19406     19408     19407     19408     19409     19410     19409     19411
     19410     19411     19412     19413     19412     19414     19413     19414
     19415     19416     19415     19417     19416     19417     19418     19419
     19418     19420     19419     19420     19421     19422     19421     19423
     19422     19423     19424     19425     19424     19426     19425     19426
     19427     19428     19427     19429     19428     19429     19430     19431
     19430     19432     19431     19432     19433     19434     19433     19435
     19434     19435     19436     19437     19436     19438     19437     19438
     19439     19440     19439     19441     19440     19441     19442     19443
     19442     19444     19443     19444     19445     19446     19445     19447
     19446     19447     19448     19449     19448     19450     19449     19450
     19451     19452     19451     19453     19452     19453     19454     19455
     19454     19456     19455     19456     19457     19458     19457     19459
     19458     19459     19460     19461     19460     19462     19461     19462
     19463     19464     19463     19465     19464     19465     19466     19467
     19466     19468     19467     19468     19469     19470     19469     19471
     19470     19471     19472     19473     19472     19474     19473     19474
     19475     19476     19475     19477     19476     19477     19478     19479
     19478     19480     19479     19480     19481     19482     19481     19483
     19482     19483     19484     19485     19484     19486     19485     19486
     19487     19488     19487     19489     19488     19489     19490     19491
     19490     19492     19491     19492     19493     19494     19493     19495
     19494     19495     19496     19497     19496     19498     19497     19498
     19499     19500     19499     19501     19500     19501     19502     19503
     19502     19504     19503     19504     19505     19506     19505     19507
     19506     19507     19508     19509     19508     19510     19509     19510
     19511     19512     19511     19513     19512     19513     19514     19515
     19514     19516     19515     19516     19517     19518     19517     19519
     19518     19519     19520     19521     19520     19522     19521     19522
     19523     19524     19523     19525     19524     19525     19526     19527
     19526     19528     19527     19528     19529     19530     19529     19531
     19530     19531     19532     19533     19532     19534     19533     19534
     19535     19536     19535     19537     19536     19537     19538     19539
     19538     19540     19539     19540     19541     19542     19541     19543
     19542     19543     19544     19545     19544     19546     19545     19546
     19547     19548     19547     19549     19548     19549     19550     19551
     19550     19552     19551     19552     19553     19554     19553     19555
     19554     19555     19556     19557     19556     19558     19557     19558
     19559     19560     19559     19561     19560     19561     19562     19563
     19562     19564     19563     19564     19565     19566     19565     19567
     19566     19567     19568     19569     19568     19570     19569     19570
     19571     19572     19571     19573     19572     19573     19574     19575
     19574     19576     19575     19576     19577     19578     19577     19579
     19578     19579     19580     19581     19580     19582     19581     19582
     19583     19584     19583     19585     19584     19585     19586     19587
     19586     19588     19587     19588     19589     19590     19589     19591
     19590     19591     19592     19593     19592     19594     19593     19594
     19595     19596     19595     19597     19596     19597     19598     19599
     19598     19600     19599     19600     19601     19602     19601     19603
     19602     19603     19604     19605     19604     19606     19605     19606
     19607     19608     19607     19609     19608     19609     19610     19611
     19610     19612     19611     19612     19613     19614     19613     19615
     19614     19615     19616     19617     19616     19618     19617     19618
     19619     19620     19619     19621     19620     19621     19622     19623
     19622     19624     19623     19624     19625     19626     19625     19627
     19626     19627     19628     19629     19628     19630     19629     19630
     19631     19632     19631     19633     19632     19633     19634     19635
     19634     19636     19635     19636     19637     19638     19637     19639
     19638     19639     19640     19641     19640     19642     19641     19642
     19643     19644     19643     19645     19644     19645     19646     19647
     19646     19648     19647     19648     19649     19650     19649     19651
     19650     19651     19652     19653     19652     19654     19653     19654
     19655     19656     19655     19657     19656     19657     19658     19659
     19658     19660     19659     19660     19661     19662     19661     19663
     19662     19663     19664     19665     19664     19666     19665     19666
     19667     19668     19667     19669     19668     19669     19670     19671
     19670     19672     19671     19672     19673     19674     19673     19675
     19674     19675     19676     19677     19676     19678     19677     19678
     19679     19680     19679     19681     19680     19681     19682     19683
     19682     19684     19683     19684     19685     19686     19685     19687
     19686     19687     19688     19689     19688     19690     19689     19690
     19691     19692     19691     19693     19692     19693     19694     19695
     19694     19696     19695     19696     19697     19698     19697     19699
     19698     19699     19700     19701     19700     19702     19701     19702
     19703     19704     19703     19705     19704     19705     19706     19707
     19706     19708     19707     19708     19709     19710     19709     19711
     19710     19711     19712     19713     19712     19714     19713     19714
     19715     19716     19715     19717     19716     19717     19718     19719
     19718     19720     19719     19720     19721     19722     19721     19723
     19722     19723     19724     19725     19724     19726     19725     19726
     19727     19728     19727     19729     19728     19729     19730     19731
     19730     19732     19731     19732     19733     19734     19733     19735
     19734     19735     19736     19737     19736     19738     19737     19738
     19739     19740     19739     19741     19740     19741     19742     19743
     19742     19744     19743     19744     19745     19746     19745     19747
     19746     19747     19748     19749     19748     19750     19749     19750
     19751     19752     19751     19753     19752     19753     19754     19755
     19754     19756     19755     19756     19757     19758     19757     19759
     19758     19759     19760     19761     19760     19762     19761     19762
     19763     19764     19763     19765     19764     19765     19766     19767
     19766     19768     19767     19768     19769     19770     19769     19771
     19770     19771     19772     19773     19772     19774     19773     19774
     19775     19776     19775     19777     19776     19777     19778     19779
     19778     19780     19779     19780     19781     19782     19781     19783
     19782     19783     19784     19785     19784     19786     19785     19786
     19787     19788     19787     19789     19788     19789     19790     19791
     19790     19792     19791     19792     19793     19794     19793     19795
     19794     19795     19796     19797     19796     19798     19797     19798
     19799     19800     19799     19801     19800     19801     19802     19803
     19802     19804     19803     19804     19805     19806     19805     19807
     19806     19807     19808     19809     19808     19810     19809     19810
     19811     19812     19811     19813     19812     19813     19814     19815
     19814     19816     19815     19816     19817     19818     19817     19819
     19818     19819     19820     19821     19820     19822     19821     19822
     19823     19824     19823     19825     19824     19825     19826     19827
     19826     19828     19827     19828     19829     19830     19829     19831
     19830     19831     19832     19833     19832     19834     19833     19834
     19835     19836     19835     19837     19836     19837     19838     19839
     19838     19840     19839     19840     19841     19842     19841     19843
     19842     19843     19844     19845     19844     19846     19845     19846
     19847     19848     19847     19849     19848     19849     19850     19851
     19850     19852     19851     19852     19853     19854     19853     19855
     19854     19855     19856     19857     19856     19858     19857     19858
     19859     19860     19859     19861     19860     19861     19862     19863
     19862     19864     19863     19864     19865     19866     19865     19867
     19866     19867     19868     19869     19868     19870     19869     19870
     19871     19872     19871     19873     19872     19873     19874     19875
     19874     19876     19875     19876     19877     19878     19877     19879
     19878     19879     19880     19881     19880     19882     19881     19882
     19883     19884     19883     19885     19884     19885     19886     19887
     19886     19888     19887     19888     19889     19890     19889     19891
     19890     19891     19892     19893     19892     19894     19893     19894
     19895     19896     19895     19897     19896     19897     19898     19899
     19898     19900     19899     19900     19901     19902     19901     19903
     19902     19903     19904     19905     19904     19906     19905     19906
     19907     19908     19907     19909     19908     19909     19910     19911
     19910     19912     19911     19912     19913     19914     19913     19915
     19914     19915     19916     19917     19916     19918     19917     19918
     19919     19920     19919     19921     19920     19921     19922     19923
     19922     19924     19923     19924     19925     19926     19925     19927
     19926     19927     19928     19929     19928     19930     19929     19930
     19931     19932     19931     19933     19932     19933     19934     19935
     19934     19936     19935     19936     19937     19938     19937     19939
     19938     19939     19940     19941     19940     19942     19941     19942
     19943     19944     19943     19945     19944     19945     19946     19947
     19946     19948     19947     19948     19949     19950     19949     19951
     19950     19951     19952     19953     19952     19954     19953     19954
     19955     19956     19955     19957     19956     19957     19958     19959
     19958     19960     19959     19960     19961     19962     19961     19963
     19962     19963     19964     19965     19964     19966     19965     19966
     19967     19968     19967     19969     19968     19969     19970     19971
     19970     19972     19971     19972     19973     19974     19973     19975
     19974     19975     19976     19977     19976     19978     19977     19978
     19979     19980     19979     19981     19980     19981     19982     19983
     19982     19984     19983     19984     19985     19986     19985     19987
     19986     19987     19988     19989     19988     19990     19989     19990
     19991     19992     19991     19993     19992     19993     19994     19995
     19994     19996     19995     19996     19997     19998     19997     19999
     19998     19999     20000     20001     20000     20002     20001     20002
     20003     20004     20003     20005     20004     20005     20006     20007
     20006     20008     20007     20008     20009     20010     20009     20011
     20010     20011     20012     20013     20012     20014     20013     20014
     20015     20016     20015     20017     20016     20017     20018     20019
     20018     20020     20019     20020     20021     20022     20021     20023
     20022     20023     20024     20025     20024     20026     20025     20026
     20027     20028     20027     20029     20028     20029     20030     20031
     20030     20032     20031     20032     20033     20034     20033     20035
     20034     20035     20036     20037     20036     20038     20037     20038
     20039     20040     20039     20041     20040     20041     20042     20043
     20042     20044     20043     20044     20045     20046     20045     20047
     20046     20047     20048     20049     20048     20050     20049     20050
     20051     20052     20051     20053     20052     20053     20054     20055
     20054     20056     20055     20056     20057     20058     20057     20059
     20058     20059     20060     20061     20060     20062     20061     20062
     20063     20064     20063     20065     20064     20065     20066     20067
     20066     20068     20067     20068     20069     20070     20069     20071
     20070     20071     20072     20073     20072     20074     20073     20074
     20075     20076     20075     20077     20076     20077     20078     20079
     20078     20080     20079     20080     20081     20082     20081     20083
     20082     20083     20084     20085     20084     20086     20085     20086
     20087     20088     20087     20089     20088     20089     20090     20091
     20090     20092     20091     20092     20093     20094     20093     20095
     20094     20095     20096     20097     20096     20098     20097     20098
     20099     20100     20099     20101     20100     20101     20102     20103
     20102     20104     20103     20104     20105     20106     20105     20107
     20106     20107     20108     20109     20108     20110     20109     20110
     20111     20112     20111     20113     20112     20113     20114     20115
     20114     20116     20115     20116     20117     20118     20117     20119
     20118     20119     20120     20121     20120     20122     20121     20122
     20123     20124     20123     20125     20124     20125     20126     20127
     20126     20128     20127     20128     20129     20130     20129     20131
     20130     20131     20132     20133     20132     20134     20133     20134
     20135     20136     20135     20137     20136     20137     20138     20139
     20138     20140     20139     20140     20141     20142     20141     20143
     20142     20143     20144     20145     20144     20146     20145     20146
     20147     20148     20147     20149     20148     20149     20150     20151
     20150     20152     20151     20152     20153     20154     20153     20155
     20154     20155     20156     20157     20156     20158     20157     20158
     20159     20160     20159     20161     20160     20161     20162     20163
     20162     20164     20163     20164     20165     20166     20165     20167
     20166     20167     20168     20169     20168     20170     20169     20170
     20171     20172     20171     20173     20172     20173     20174     20175
     20174     20176     20175     20176     20177     20178     20177     20179
     20178     20179     20180     20181     20180     20182     20181     20182
     20183     20184     20183     20185     20184     20185     20186     20187
     20186     20188     20187     20188     20189     20190     20189     20191
     20190     20191     20192     20193     20192     20194     20193     20194
     20195     20196     20195     20197     20196     20197     20198     20199
     20198     20200     20199     20200     20201     20202     20201     20203
     20202     20203     20204     20205     20204     20206     20205     20206
     20207     20208     20207     20209     20208     20209     20210     20211
     20210     20212     20211     20212     20213     20214     20213     20215
     20214     20215     20216     20217     20216     20218     20217     20218
     20219     20220     20219     20221     20220     20221     20222     20223
     20222     20224     20223     20224     20225     20226     20225     20227
     20226     20227     20228     20229     20228     20230     20229     20230
     20231     20232     20231     20233     20232     20233     20234     20235
     20234     20236     20235     20236     20237     20238     20237     20239
     20238     20239     20240     20241     20240     20242     20241     20242
     20243     20244     20243     20245     20244     20245     20246     20247
     20246     20248     20247     20248     20249     20250     20249     20251
     20250     20251     20252     20253     20252     20254     20253     20254
     20255     20256     20255     20257     20256     20257     20258     20259
     20258     20260     20259     20260     20261     20262     20261     20263
     20262     20263     20264     20265     20264     20266     20265     20266
     20267     20268     20267     20269     20268     20269     20270     20271
     20270     20272     20271     20272     20273     20274     20273     20275
     20274     20275     20276     20277     20276     20278     20277     20278
     20279     20280     20279     20281     20280     20281     20282     20283
     20282     20284     20283     20284     20285     20286     20285     20287
     20286     20287     20288     20289     20288     20290     20289     20290
     20291     20292     20291     20293     20292     20293     20294     20295
     20294     20296     20295     20296     20297     20298     20297     20299
     20298     20299     20300     20301     20300     20302     20301     20302
     20303     20304     20303     20305     20304     20305     20306     20307
     20306     20308     20307     20308     20309     20310     20309     20311
     20310     20311     20312     20313     20312     20314     20313     20314
     20315     20316     20315     20317     20316     20317     20318     20319
     20318     20320     20319     20320     20321     20322     20321     20323
     20322     20323     20324     20325     20324     20326     20325     20326
     20327     20328     20327     20329     20328     20329     20330     20331
     20330     20332     20331     20332     20333     20334     20333     20335
     20334     20335     20336     20337     20336     20338     20337     20338
     20339     20340     20339     20341     20340     20341     20342     20343
     20342     20344     20343     20344     20345     20346     20345     20347
     20346     20347     20348     20349     20348     20350     20349     20350
     20351     20352     20351     20353     20352     20353     20354     20355
     20354     20356     20355     20356     20357     20358     20357     20359
     20358     20359     20360     20361     20360     20362     20361     20362
     20363     20364     20363     20365     20364     20365     20366     20367
     20366     20368     20367     20368     20369     20370     20369     20371
     20370     20371     20372     20373     20372     20374     20373     20374
     20375     20376     20375     20377     20376     20377     20378     20379
     20378     20380     20379     20380     20381     20382     20381     20383
     20382     20383     20384     20385     20384     20386     20385     20386
     20387     20388     20387     20389     20388     20389     20390     20391
     20390     20392     20391     20392     20393     20394     20393     20395
     20394     20395     20396     20397     20396     20398     20397     20398
     20399     20400     20399     20401     20400     20401     20402     20403
     20402     20404     20403     20404     20405     20406     20405     20407
     20406     20407     20408     20409     20408     20410     20409     20410
     20411     20412     20411     20413     20412     20413     20414     20415
     20414     20416     20415     20416     20417     20418     20417     20419
     20418     20419     20420     20421     20420     20422     20421     20422
     20423     20424     20423     20425     20424     20425     20426     20427
     20426     20428     20427     20428     20429     20430     20429     20431
     20430     20431     20432     20433     20432     20434     20433     20434
     20435     20436     20435     20437     20436     20437     20438     20439
     20438     20440     20439     20440     20441     20442     20441     20443
     20442     20443     20444     20445     20444     20446     20445     20446
     20447     20448     20447     20449     20448     20449     20450     20451
     20450     20452     20451     20452     20453     20454     20453     20455
     20454     20455     20456     20457     20456     20458     20457     20458
     20459     20460     20459     20461     20460     20461     20462     20463
     20462     20464     20463     20464     20465     20466     20465     20467
     20466     20467     20468     20469     20468     20470     20469     20470
     20471     20472     20471     20473     20472     20473     20474     20475
     20474     20476     20475     20476     20477     20478     20477     20479
     20478     20479     20480     20481     20480     20482     20481     20482
     20483     20484     20483     20485     20484     20485     20486     20487
     20486     20488     20487     20488     20489     20490     20489     20491
     20490     20491     20492     20493     20492     20494     20493     20494
     20495     20496     20495     20497     20496     20497     20498     20499
     20498     20500     20499     20500     20501     20502     20501     20503
     20502     20503     20504     20505     20504     20506     20505     20506
     20507     20508     20507     20509     20508     20509     20510     20511
     20510     20512     20511     20512     20513     20514     20513     20515
     20514     20515     20516     20517     20516     20518     20517     20518
     20519     20520     20519     20521     20520     20521     20522     20523
     20522     20524     20523     20524     20525     20526     20525     20527
     20526     20527     20528     20529     20528     20530     20529     20530
     20531     20532     20531     20533     20532     20533     20534     20535
     20534     20536     20535     20536     20537     20538     20537     20539
     20538     20539     20540     20541     20540     20542     20541     20542
     20543     20544     20543     20545     20544     20545     20546     20547
     20546     20548     20547     20548     20549     20550     20549     20551
     20550     20551     20552     20553     20552     20554     20553     20554
     20555     20556     20555     20557     20556     20557     20558     20559
     20558     20560     20559     20560     20561     20562     20561     20563
     20562     20563     20564     20565     20564     20566     20565     20566
     20567     20568     20567     20569     20568     20569     20570     20571
     20570     20572     20571     20572     20573     20574     20573     20575
     20574     20575     20576     20577     20576     20578     20577     20578
     20579     20580     20579     20581     20580     20581     20582     20583
     20582     20584     20583     20584     20585     20586     20585     20587
     20586     20587     20588     20589     20588     20590     20589     20590
     20591     20592     20591     20593     20592     20593     20594     20595
     20594     20596     20595     20596     20597     20598     20597     20599
     20598     20599     20600     20601     20600     20602     20601     20602
     20603     20604     20603     20605     20604     20605     20606     20607
     20606     20608     20607     20608     20609     20610     20609     20611
     20610     20611     20612     20613     20612     20614     20613     20614
     20615     20616     20615     20617     20616     20617     20618     20619
     20618     20620     20619     20620     20621     20622     20621     20623
     20622     20623     20624     20625     20624     20626     20625     20626
     20627     20628     20627     20629     20628     20629     20630     20631
     20630     20632     20631     20632     20633     20634     20633     20635
     20634     20635     20636     20637     20636     20638     20637     20638
     20639     20640     20639     20641     20640     20641     20642     20643
     20642     20644     20643     20644     20645     20646     20645     20647
     20646     20647     20648     20649     20648     20650     20649     20650
     20651     20652     20651     20653     20652     20653     20654     20655
     20654     20656     20655     20656     20657     20658     20657     20659
     20658     20659     20660     20661     20660     20662     20661     20662
     20663     20664     20663     20665     20664     20665     20666     20667
     20666     20668     20667     20668     20669     20670     20669     20671
     20670     20671     20672     20673     20672     20674     20673     20674
     20675     20676     20675     20677     20676     20677     20678     20679
     20678     20680     20679     20680     20681     20682     20681     20683
     20682     20683     20684     20685     20684     20686     20685     20686
     20687     20688     20687     20689     20688     20689     20690     20691
     20690     20692     20691     20692     20693     20694     20693     20695
     20694     20695     20696     20697     20696     20698     20697     20698
     20699     20700     20699     20701     20700     20701     20702     20703
     20702     20704     20703     20704     20705     20706     20705     20707
     20706     20707     20708     20709     20708     20710     20709     20710
     20711     20712     20711     20713     20712     20713     20714     20715
     20714     20716     20715     20716     20717     20718     20717     20719
     20718     20719     20720     20721     20720     20722     20721     20722
     20723     20724     20723     20725     20724     20725     20726     20727
     20726     20728     20727     20728     20729     20730     20729     20731
     20730     20731     20732     20733     20732     20734     20733     20734
     20735     20736     20735     20737     20736     20737     20738     20739
     20738     20740     20739     20740     20741     20742     20741     20743
     20742     20743     20744     20745     20744     20746     20745     20746
     20747     20748     20747     20749     20748     20749     20750     20751
     20750     20752     20751     20752     20753     20754     20753     20755
     20754     20755     20756     20757     20756     20758     20757     20758
     20759     20760     20759     20761     20760     20761     20762     20763
     20762     20764     20763     20764     20765     20766     20765     20767
     20766     20767     20768     20769     20768     20770     20769     20770
     20771     20772     20771     20773     20772     20773     20774     20775
     20774     20776     20775     20776     20777     20778     20777     20779
     20778     20779     20780     20781     20780     20782     20781     20782
     20783     20784     20783     20785     20784     20785     20786     20787
     20786     20788     20787     20788     20789     20790     20789     20791
     20790     20791     20792     20793     20792     20794     20793     20794
     20795     20796     20795     20797     20796     20797     20798     20799
     20798     20800     20799     20800     20801     20802     20801     20803
     20802     20803     20804     20805     20804     20806     20805     20806
     20807     20808     20807     20809     20808     20809     20810     20811
     20810     20812     20811     20812     20813     20814     20813     20815
     20814     20815     20816     20817     20816     20818     20817     20818
     20819     20820     20819     20821     20820     20821     20822     20823
     20822     20824     20823     20824     20825     20826     20825     20827
     20826     20827     20828     20829     20828     20830     20829     20830
     20831     20832     20831     20833     20832     20833     20834     20835
     20834     20836     20835     20836     20837     20838     20837     20839
     20838     20839     20840     20841     20840     20842     20841     20842
     20843     20844     20843     20845     20844     20845     20846     20847
     20846     20848     20847     20848     20849     20850     20849     20851
     20850     20851     20852     20853     20852     20854     20853     20854
     20855     20856     20855     20857     20856     20857     20858     20859
     20858     20860     20859     20860     20861     20862     20861     20863
     20862     20863     20864     20865     20864     20866     20865     20866
     20867     20868     20867     20869     20868     20869     20870     20871
     20870     20872     20871     20872     20873     20874     20873     20875
     20874     20875     20876     20877     20876     20878     20877     20878
     20879     20880     20879     20881     20880     20881     20882     20883
     20882     20884     20883     20884     20885     20886     20885     20887
     20886     20887     20888     20889     20888     20890     20889     20890
     20891     20892     20891     20893     20892     20893     20894     20895
     20894     20896     20895     20896     20897     20898     20897     20899
     20898     20899     20900     20901     20900     20902     20901     20902
     20903     20904     20903     20905     20904     20905     20906     20907
     20906     20908     20907     20908     20909     20910     20909     20911
     20910     20911     20912     20913     20912     20914     20913     20914
     20915     20916     20915     20917     20916     20917     20918     20919
     20918     20920     20919     20920     20921     20922     20921     20923
     20922     20923     20924     20925     20924     20926     20925     20926
     20927     20928     20927     20929     20928     20929     20930     20931
     20930     20932     20931     20932     20933     20934     20933     20935
     20934     20935     20936     20937     20936     20938     20937     20938
     20939     20940     20939     20941     20940     20941     20942     20943
     20942     20944     20943     20944     20945     20946     20945     20947
     20946     20947     20948     20949     20948     20950     20949     20950
     20951     20952     20951     20953     20952     20953     20954     20955
     20954     20956     20955     20956     20957     20958     20957     20959
     20958     20959     20960     20961     20960     20962     20961     20962
     20963     20964     20963     20965     20964     20965     20966     20967
     20966     20968     20967     20968     20969     20970     20969     20971
     20970     20971     20972     20973     20972     20974     20973     20974
     20975     20976     20975     20977     20976     20977     20978     20979
     20978     20980     20979     20980     20981     20982     20981     20983
     20982     20983     20984     20985     20984     20986     20985     20986
     20987     20988     20987     20989     20988     20989     20990     20991
     20990     20992     20991     20992     20993     20994     20993     20995
     20994     20995     20996     20997     20996     20998     20997     20998
     20999     21000     20999     21001     21000     21001     21002     21003
     21002     21004     21003     21004     21005     21006     21005     21007
     21006     21007     21008     21009     21008     21010     21009     21010
     21011     21012     21011     21013     21012     21013     21014     21015
     21014     21016     21015     21016     21017     21018     21017     21019
     21018     21019     21020     21021     21020     21022     21021     21022
     21023     21024     21023     21025     21024     21025     21026     21027
     21026     21028     21027     21028     21029     21030     21029     21031
     21030     21031     21032     21033     21032     21034     21033     21034
     21035     21036     21035     21037     21036     21037     21038     21039
     21038     21040     21039     21040     21041     21042     21041     21043
     21042     21043     21044     21045     21044     21046     21045     21046
     21047     21048     21047     21049     21048     21049     21050     21051
     21050     21052     21051     21052     21053     21054     21053     21055
     21054     21055     21056     21057     21056     21058     21057     21058
     21059     21060     21059     21061     21060     21061     21062     21063
     21062     21064     21063     21064     21065     21066     21065     21067
     21066     21067     21068     21069     21068     21070     21069     21070
     21071     21072     21071     21073     21072     21073     21074     21075
     21074     21076     21075     21076     21077     21078     21077     21079
     21078     21079     21080     21081     21080     21082     21081     21082
     21083     21084     21083     21085     21084     21085     21086     21087
     21086     21088     21087     21088     21089     21090     21089     21091
     21090     21091     21092     21093     21092     21094     21093     21094
     21095     21096     21095     21097     21096     21097     21098     21099
     21098     21100     21099     21100     21101     21102     21101     21103
     21102     21103     21104     21105     21104     21106     21105     21106
     21107     21108     21107     21109     21108     21109     21110     21111
     21110     21112     21111     21112     21113     21114     21113     21115
     21114     21115     21116     21117     21116     21118     21117     21118
     21119     21120     21119     21121     21120     21121     21122     21123
     21122     21124     21123     21124     21125     21126     21125     21127
     21126     21127     21128     21129     21128     21130     21129     21130
     21131     21132     21131     21133     21132     21133     21134     21135
     21134     21136     21135     21136     21137     21138     21137     21139
     21138     21139     21140     21141     21140     21142     21141     21142
     21143     21144     21143     21145     21144     21145     21146     21147
     21146     21148     21147     21148     21149     21150     21149     21151
     21150     21151     21152     21153     21152     21154     21153     21154
     21155     21156     21155     21157     21156     21157     21158     21159
     21158     21160     21159     21160     21161     21162     21161     21163
     21162     21163     21164     21165     21164     21166     21165     21166
     21167     21168     21167     21169     21168     21169     21170     21171
     21170     21172     21171     21172     21173     21174     21173     21175
     21174     21175     21176     21177     21176     21178     21177     21178
     21179     21180     21179     21181     21180     21181     21182     21183
     21182     21184     21183     21184     21185     21186     21185     21187
     21186     21187     21188     21189     21188     21190     21189     21190
     21191     21192     21191     21193     21192     21193     21194     21195
     21194     21196     21195     21196     21197     21198     21197     21199
     21198     21199     21200     21201     21200     21202     21201     21202
     21203     21204     21203     21205     21204     21205     21206     21207
     21206     21208     21207     21208     21209     21210     21209     21211
     21210     21211     21212     21213     21212     21214     21213     21214
     21215     21216     21215     21217     21216     21217     21218     21219
     21218     21220     21219     21220     21221     21222     21221     21223
     21222     21223     21224     21225     21224     21226     21225     21226
     21227     21228     21227     21229     21228     21229     21230     21231
     21230     21232     21231     21232     21233     21234     21233     21235
     21234     21235     21236     21237     21236     21238     21237     21238
     21239     21240     21239     21241     21240     21241     21242     21243
     21242     21244     21243     21244     21245     21246     21245     21247
     21246     21247     21248     21249     21248     21250     21249     21250
     21251     21252     21251     21253     21252     21253     21254     21255
     21254     21256     21255     21256     21257     21258     21257     21259
     21258     21259     21260     21261     21260     21262     21261     21262
     21263     21264     21263     21265     21264     21265     21266     21267
     21266     21268     21267     21268     21269     21270     21269     21271
     21270     21271     21272     21273     21272     21274     21273     21274
     21275     21276     21275     21277     21276     21277     21278     21279
     21278     21280     21279     21280     21281     21282     21281     21283
     21282     21283     21284     21285     21284     21286     21285     21286
     21287     21288     21287     21289     21288     21289     21290     21291
     21290     21292     21291     21292     21293     21294     21293     21295
     21294     21295     21296     21297     21296     21298     21297     21298
     21299     21300     21299     21301     21300     21301     21302     21303
     21302     21304     21303     21304     21305     21306     21305     21307
     21306     21307     21308     21309     21308     21310     21309     21310
     21311     21312     21311     21313     21312     21313     21314     21315
     21314     21316     21315     21316     21317     21318     21317     21319
     21318     21319     21320     21321     21320     21322     21321     21322
     21323     21324     21323     21325     21324     21325     21326     21327
     21326     21328     21327     21328     21329     21330     21329     21331
     21330     21331     21332     21333     21332     21334     21333     21334
     21335     21336     21335     21337     21336     21337     21338     21339
     21338     21340     21339     21340     21341     21342     21341     21343
     21342     21343     21344     21345     21344     21346     21345     21346
     21347     21348     21347     21349     21348     21349     21350     21351
     21350     21352     21351     21352     21353     21354     21353     21355
     21354     21355     21356     21357     21356     21358     21357     21358
     21359     21360     21359     21361     21360     21361     21362     21363
     21362     21364     21363     21364     21365     21366     21365     21367
     21366     21367     21368     21369     21368     21370     21369     21370
     21371     21372     21371     21373     21372     21373     21374     21375
     21374     21376     21375     21376     21377     21378     21377     21379
     21378     21379     21380     21381     21380     21382     21381     21382
     21383     21384     21383     21385     21384     21385     21386     21387
     21386     21388     21387     21388     21389     21390     21389     21391
     21390     21391     21392     21393     21392     21394     21393     21394
     21395     21396     21395     21397     21396     21397     21398     21399
     21398     21400     21399     21400     21401     21402     21401     21403
     21402     21403     21404     21405     21404     21406     21405     21406
     21407     21408     21407     21409     21408     21409     21410     21411
     21410     21412     21411     21412     21413     21414     21413     21415
     21414     21415     21416     21417     21416     21418     21417     21418
     21419     21420     21419     21421     21420     21421     21422     21423
     21422     21424     21423     21424     21425     21426     21425     21427
     21426     21427     21428     21429     21428     21430     21429     21430
     21431     21432     21431     21433     21432     21433     21434     21435
     21434     21436     21435     21436     21437     21438     21437     21439
     21438     21439     21440     21441     21440     21442     21441     21442
     21443     21444     21443     21445     21444     21445     21446     21447
     21446     21448     21447     21448     21449     21450     21449     21451
     21450     21451     21452     21453     21452     21454     21453     21454
     21455     21456     21455     21457     21456     21457     21458     21459
     21458     21460     21459     21460     21461     21462     21461     21463
     21462     21463     21464     21465     21464     21466     21465     21466
     21467     21468     21467     21469     21468     21469     21470     21471
     21470     21472     21471     21472     21473     21474     21473     21475
     21474     21475     21476     21477     21476     21478     21477     21478
     21479     21480     21479     21481     21480     21481     21482     21483
     21482     21484     21483     21484     21485     21486     21485     21487
     21486     21487     21488     21489     21488     21490     21489     21490
     21491     21492     21491     21493     21492     21493     21494     21495
     21494     21496     21495     21496     21497     21498     21497     21499
     21498     21499     21500     21501     21500     21502     21501     21502
     21503     21504     21503     21505     21504     21505     21506     21507
     21506     21508     21507     21508     21509     21510     21509     21511
     21510     21511     21512     21513     21512     21514     21513     21514
     21515     21516     21515     21517     21516     21517     21518     21519
     21518     21520     21519     21520     21521     21522     21521     21523
     21522     21523     21524     21525     21524     21526     21525     21526
     21527     21528     21527     21529     21528     21529     21530     21531
     21530     21532     21531     21532     21533     21534     21533     21535
     21534     21535     21536     21537     21536     21538     21537     21538
     21539     21540     21539     21541     21540     21541     21542     21543
     21542     21544     21543     21544     21545     21546     21545     21547
     21546     21547     21548     21549     21548     21550     21549     21550
     21551     21552     21551     21553     21552     21553     21554     21555
     21554     21556     21555     21556     21557     21558     21557     21559
     21558     21559     21560     21561     21560     21562     21561     21562
     21563     21564     21563     21565     21564     21565     21566     21567
     21566     21568     21567     21568     21569     21570     21569     21571
     21570     21571     21572     21573     21572     21574     21573     21574
     21575     21576     21575     21577     21576     21577     21578     21579
     21578     21580     21579     21580     21581     21582     21581     21583
     21582     21583     21584     21585     21584     21586     21585     21586
     21587     21588     21587     21589     21588     21589     21590     21591
     21590     21592     21591     21592     21593     21594     21593     21595
     21594     21595     21596     21597     21596     21598     21597     21598
     21599     21600     21599     21601     21600     21601     21602     21603
     21602     21604     21603     21604     21605     21606     21605     21607
     21606     21607     21608     21609     21608     21610     21609     21610
     21611     21612     21611     21613     21612     21613     21614     21615
     21614     21616     21615     21616     21617     21618     21617     21619
     21618     21619     21620     21621     21620     21622     21621     21622
     21623     21624     21623     21625     21624     21625     21626     21627
     21626     21628     21627     21628     21629     21630     21629     21631
     21630     21631     21632     21633     21632     21634     21633     21634
     21635     21636     21635     21637     21636     21637     21638     21639
     21638     21640     21639     21640     21641     21642     21641     21643
     21642     21643     21644     21645     21644     21646     21645     21646
     21647     21648     21647     21649     21648     21649     21650     21651
     21650     21652     21651     21652     21653     21654     21653     21655
     21654     21655     21656     21657     21656     21658     21657     21658
     21659     21660     21659     21661     21660     21661     21662     21663
     21662     21664     21663     21664     21665     21666     21665     21667
     21666     21667     21668     21669     21668     21670     21669     21670
     21671     21672     21671     21673     21672     21673     21674     21675
     21674     21676     21675     21676     21677     21678     21677     21679
     21678     21679     21680     21681     21680     21682     21681     21682
     21683     21684     21683     21685     21684     21685     21686     21687
     21686     21688     21687     21688     21689     21690     21689     21691
     21690     21691     21692     21693     21692     21694     21693     21694
     21695     21696     21695     21697     21696     21697     21698     21699
     21698     21700     21699     21700     21701     21702     21701     21703
     21702     21703     21704     21705     21704     21706     21705     21706
     21707     21708     21707     21709     21708     21709     21710     21711
     21710     21712     21711     21712     21713     21714     21713     21715
     21714     21715     21716     21717     21716     21718     21717     21718
     21719     21720     21719     21721     21720     21721     21722     21723
     21722     21724     21723     21724     21725     21726     21725     21727
     21726     21727     21728     21729     21728     21730     21729     21730
     21731     21732     21731     21733     21732     21733     21734     21735
     21734     21736     21735     21736     21737     21738     21737     21739
     21738     21739     21740     21741     21740     21742     21741     21742
     21743     21744     21743     21745     21744     21745     21746     21747
     21746     21748     21747     21748     21749     21750     21749     21751
     21750     21751     21752     21753     21752     21754     21753     21754
     21755     21756     21755     21757     21756     21757     21758     21759
     21758     21760     21759     21760     21761     21762     21761     21763
     21762     21763     21764     21765     21764     21766     21765     21766
     21767     21768     21767     21769     21768     21769     21770     21771
     21770     21772     21771     21772     21773     21774     21773     21775
     21774     21775     21776     21777     21776     21778     21777     21778
     21779     21780     21779     21781     21780     21781     21782     21783
     21782     21784     21783     21784     21785     21786     21785     21787
     21786     21787     21788     21789     21788     21790     21789     21790
     21791     21792     21791     21793     21792     21793     21794     21795
     21794     21796     21795     21796     21797     21798     21797     21799
     21798     21799     21800     21801     21800     21802     21801     21802
     21803     21804     21803     21805     21804     21805     21806     21807
     21806     21808     21807     21808     21809     21810     21809     21811
     21810     21811     21812     21813     21812     21814     21813     21814
     21815     21816     21815     21817     21816     21817     21818     21819
     21818     21820     21819     21820     21821     21822     21821     21823
     21822     21823     21824     21825     21824     21826     21825     21826
     21827     21828     21827     21829     21828     21829     21830     21831
     21830     21832     21831     21832     21833     21834     21833     21835
     21834     21835     21836     21837     21836     21838     21837     21838
     21839     21840     21839     21841     21840     21841     21842     21843
     21842     21844     21843     21844     21845     21846     21845     21847
     21846     21847     21848     21849     21848     21850     21849     21850
     21851     21852     21851     21853     21852     21853     21854     21855
     21854     21856     21855     21856     21857     21858     21857     21859
     21858     21859     21860     21861     21860     21862     21861     21862
     21863     21864     21863     21865     21864     21865     21866     21867
     21866     21868     21867     21868     21869     21870     21869     21871
     21870     21871     21872     21873     21872     21874     21873     21874
     21875     21876     21875     21877     21876     21877     21878     21879
     21878     21880     21879     21880     21881     21882     21881     21883
     21882     21883     21884     21885     21884     21886     21885     21886
     21887     21888     21887     21889     21888     21889     21890     21891
     21890     21892     21891     21892     21893     21894     21893     21895
     21894     21895     21896     21897     21896     21898     21897     21898
     21899     21900     21899     21901     21900     21901     21902     21903
     21902     21904     21903     21904     21905     21906     21905     21907
     21906     21907     21908     21909     21908     21910     21909     21910
     21911     21912     21911     21913     21912     21913     21914     21915
     21914     21916     21915     21916     21917     21918     21917     21919
     21918     21919     21920     21921     21920     21922     21921     21922
     21923     21924     21923     21925     21924     21925     21926     21927
     21926     21928     21927     21928     21929     21930     21929     21931
     21930     21931     21932     21933     21932     21934     21933     21934
     21935     21936     21935     21937     21936     21937     21938     21939
     21938     21940     21939     21940     21941     21942     21941     21943
     21942     21943     21944     21945     21944     21946     21945     21946
     21947     21948     21947     21949     21948     21949     21950     21951
     21950     21952     21951     21952     21953     21954     21953     21955
     21954     21955     21956     21957     21956     21958     21957     21958
     21959     21960     21959     21961     21960     21961     21962     21963
     21962     21964     21963     21964     21965     21966     21965     21967
     21966     21967     21968     21969     21968     21970     21969     21970
     21971     21972     21971     21973     21972     21973     21974     21975
     21974     21976     21975     21976     21977     21978     21977     21979
     21978     21979     21980     21981     21980     21982     21981     21982
     21983     21984     21983     21985     21984     21985     21986     21987
     21986     21988     21987     21988     21989     21990     21989     21991
     21990     21991     21992     21993     21992     21994     21993     21994
     21995     21996     21995     21997     21996     21997     21998     21999
     21998     22000     21999     22000     22001     22002     22001     22003
     22002     22003     22004     22005     22004     22006     22005     22006
     22007     22008     22007     22009     22008     22009     22010     22011
     22010     22012     22011     22012     22013     22014     22013     22015
     22014     22015     22016     22017     22016     22018     22017     22018
     22019     22020     22019     22021     22020     22021     22022     22023
     22022     22024     22023     22024     22025     22026     22025     22027
     22026     22027     22028     22029     22028     22030     22029     22030
     22031     22032     22031     22033     22032     22033     22034     22035
     22034     22036     22035     22036     22037     22038     22037     22039
     22038     22039     22040     22041     22040     22042     22041     22042
     22043     22044     22043     22045     22044     22045     22046     22047
     22046     22048     22047     22048     22049     22050     22049     22051
     22050     22051     22052     22053     22052     22054     22053     22054
     22055     22056     22055     22057     22056     22057     22058     22059
     22058     22060     22059     22060     22061     22062     22061     22063
     22062     22063     22064     22065     22064     22066     22065     22066
     22067     22068     22067     22069     22068     22069     22070     22071
     22070     22072     22071     22072     22073     22074     22073     22075
     22074     22075     22076     22077     22076     22078     22077     22078
     22079     22080     22079     22081     22080     22081     22082     22083
     22082     22084     22083     22084     22085     22086     22085     22087
     22086     22087     22088     22089     22088     22090     22089     22090
     22091     22092     22091     22093     22092     22093     22094     22095
     22094     22096     22095     22096     22097     22098     22097     22099
     22098     22099     22100     22101     22100     22102     22101     22102
     22103     22104     22103     22105     22104     22105     22106     22107
     22106     22108     22107     22108     22109     22110     22109     22111
     22110     22111     22112     22113     22112     22114     22113     22114
     22115     22116     22115     22117     22116     22117     22118     22119
     22118     22120     22119     22120     22121     22122     22121     22123
     22122     22123     22124     22125     22124     22126     22125     22126
     22127     22128     22127     22129     22128     22129     22130     22131
     22130     22132     22131     22132     22133     22134     22133     22135
     22134     22135     22136     22137     22136     22138     22137     22138
     22139     22140     22139     22141     22140     22141     22142     22143
     22142     22144     22143     22144     22145     22146     22145     22147
     22146     22147     22148     22149     22148     22150     22149     22150
     22151     22152     22151     22153     22152     22153     22154     22155
     22154     22156     22155     22156     22157     22158     22157     22159
     22158     22159     22160     22161     22160     22162     22161     22162
     22163     22164     22163     22165     22164     22165     22166     22167
     22166     22168     22167     22168     22169     22170     22169     22171
     22170     22171     22172     22173     22172     22174     22173     22174
     22175     22176     22175     22177     22176     22177     22178     22179
     22178     22180     22179     22180     22181     22182     22181     22183
     22182     22183     22184     22185     22184     22186     22185     22186
     22187     22188     22187     22189     22188     22189     22190     22191
     22190     22192     22191     22192     22193     22194     22193     22195
     22194     22195     22196     22197     22196     22198     22197     22198
     22199     22200     22199     22201     22200     22201     22202     22203
     22202     22204     22203     22204     22205     22206     22205     22207
     22206     22207     22208     22209     22208     22210     22209     22210
     22211     22212     22211     22213     22212     22213     22214     22215
     22214     22216     22215     22216     22217     22218     22217     22219
     22218     22219     22220     22221     22220     22222     22221     22222
     22223     22224     22223     22225     22224     22225     22226     22227
     22226     22228     22227     22228     22229     22230     22229     22231
     22230     22231     22232     22233     22232     22234     22233     22234
     22235     22236     22235     22237     22236     22237     22238     22239
     22238     22240     22239     22240     22241     22242     22241     22243
     22242     22243     22244     22245     22244     22246     22245     22246
     22247     22248     22247     22249     22248     22249     22250     22251
     22250     22252     22251     22252     22253     22254     22253     22255
     22254     22255     22256     22257     22256     22258     22257     22258
     22259     22260     22259     22261     22260     22261     22262     22263
     22262     22264     22263     22264     22265     22266     22265     22267
     22266     22267     22268     22269     22268     22270     22269     22270
     22271     22272     22271     22273     22272     22273     22274     22275
     22274     22276     22275     22276     22277     22278     22277     22279
     22278     22279     22280     22281     22280     22282     22281     22282
     22283     22284     22283     22285     22284     22285     22286     22287
     22286     22288     22287     22288     22289     22290     22289     22291
     22290     22291     22292     22293     22292     22294     22293     22294
     22295     22296     22295     22297     22296     22297     22298     22299
     22298     22300     22299     22300     22301     22302     22301     22303
     22302     22303     22304     22305     22304     22306     22305     22306
     22307     22308     22307     22309     22308     22309     22310     22311
     22310     22312     22311     22312     22313     22314     22313     22315
     22314     22315     22316     22317     22316     22318     22317     22318
     22319     22320     22319     22321     22320     22321     22322     22323
     22322     22324     22323     22324     22325     22326     22325     22327
     22326     22327     22328     22329     22328     22330     22329     22330
     22331     22332     22331     22333     22332     22333     22334     22335
     22334     22336     22335     22336     22337     22338     22337     22339
     22338     22339     22340     22341     22340     22342     22341     22342
     22343     22344     22343     22345     22344     22345     22346     22347
     22346     22348     22347     22348     22349     22350     22349     22351
     22350     22351     22352     22353     22352     22354     22353     22354
     22355     22356     22355     22357     22356     22357     22358     22359
     22358     22360     22359     22360     22361     22362     22361     22363
     22362     22363     22364     22365     22364     22366     22365     22366
     22367     22368     22367     22369     22368     22369     22370     22371
     22370     22372     22371     22372     22373     22374     22373     22375
     22374     22375     22376     22377     22376     22378     22377     22378
     22379     22380     22379     22381     22380     22381     22382     22383
     22382     22384     22383     22384     22385     22386     22385     22387
     22386     22387     22388     22389     22388     22390     22389     22390
     22391     22392     22391     22393     22392     22393     22394     22395
     22394     22396     22395     22396     22397     22398     22397     22399
     22398     22399     22400     22401     22400     22402     22401     22402
     22403     22404     22403     22405     22404     22405     22406     22407
     22406     22408     22407     22408     22409     22410     22409     22411
     22410     22411     22412     22413     22412     22414     22413     22414
     22415     22416     22415     22417     22416     22417     22418     22419
     22418     22420     22419     22420     22421     22422     22421     22423
     22422     22423     22424     22425     22424     22426     22425     22426
     22427     22428     22427     22429     22428     22429     22430     22431
     22430     22432     22431     22432     22433     22434     22433     22435
     22434     22435     22436     22437     22436     22438     22437     22438
     22439     22440     22439     22441     22440     22441     22442     22443
     22442     22444     22443     22444     22445     22446     22445     22447
     22446     22447     22448     22449     22448     22450     22449     22450
     22451     22452     22451     22453     22452     22453     22454     22455
     22454     22456     22455     22456     22457     22458     22457     22459
     22458     22459     22460     22461     22460     22462     22461     22462
     22463     22464     22463     22465     22464     22465     22466     22467
     22466     22468     22467     22468     22469     22470     22469     22471
     22470     22471     22472     22473     22472     22474     22473     22474
     22475     22476     22475     22477     22476     22477     22478     22479
     22478     22480     22479     22480     22481     22482     22481     22483
     22482     22483     22484     22485     22484     22486     22485     22486
     22487     22488     22487     22489     22488     22489     22490     22491
     22490     22492     22491     22492     22493     22494     22493     22495
     22494     22495     22496     22497     22496     22498     22497     22498
     22499     22500     22499     22501     22500     22501     22502     22503
     22502     22504     22503     22504     22505     22506     22505     22507
     22506     22507     22508     22509     22508     22510     22509     22510
     22511     22512     22511     22513     22512     22513     22514     22515
     22514     22516     22515     22516     22517     22518     22517     22519
     22518     22519     22520     22521     22520     22522     22521     22522
     22523     22524     22523     22525     22524     22525     22526     22527
     22526     22528     22527     22528     22529     22530     22529     22531
     22530     22531     22532     22533     22532     22534     22533     22534
     22535     22536     22535     22537     22536     22537     22538     22539
     22538     22540     22539     22540     22541     22542     22541     22543
     22542     22543     22544     22545     22544     22546     22545     22546
     22547     22548     22547     22549     22548     22549     22550     22551
     22550     22552     22551     22552     22553     22554     22553     22555
     22554     22555     22556     22557     22556     22558     22557     22558
     22559     22560     22559     22561     22560     22561     22562     22563
     22562     22564     22563     22564     22565     22566     22565     22567
     22566     22567     22568     22569     22568     22570     22569     22570
     22571     22572     22571     22573     22572     22573     22574     22575
     22574     22576     22575     22576     22577     22578     22577     22579
     22578     22579     22580     22581     22580     22582     22581     22582
     22583     22584     22583     22585     22584     22585     22586     22587
     22586     22588     22587     22588     22589     22590     22589     22591
     22590     22591     22592     22593     22592     22594     22593     22594
     22595     22596     22595     22597     22596     22597     22598     22599
     22598     22600     22599     22600     22601     22602     22601     22603
     22602     22603     22604     22605     22604     22606     22605     22606
     22607     22608     22607     22609     22608     22609     22610     22611
     22610     22612     22611     22612     22613     22614     22613     22615
     22614     22615     22616     22617     22616     22618     22617     22618
     22619     22620     22619     22621     22620     22621     22622     22623
     22622     22624     22623     22624     22625     22626     22625     22627
     22626     22627     22628     22629     22628     22630     22629     22630
     22631     22632     22631     22633     22632     22633     22634     22635
     22634     22636     22635     22636     22637     22638     22637     22639
     22638     22639     22640     22641     22640     22642     22641     22642
     22643     22644     22643     22645     22644     22645     22646     22647
     22646     22648     22647     22648     22649     22650     22649     22651
     22650     22651     22652     22653     22652     22654     22653     22654
     22655     22656     22655     22657     22656     22657     22658     22659
     22658     22660     22659     22660     22661     22662     22661     22663
     22662     22663     22664     22665     22664     22666     22665     22666
     22667     22668     22667     22669     22668     22669     22670     22671
     22670     22672     22671     22672     22673     22674     22673     22675
     22674     22675     22676     22677     22676     22678     22677     22678
     22679     22680     22679     22681     22680     22681     22682     22683
     22682     22684     22683     22684     22685     22686     22685     22687
     22686     22687     22688     22689     22688     22690     22689     22690
     22691     22692     22691     22693     22692     22693     22694     22695
     22694     22696     22695     22696     22697     22698     22697     22699
     22698     22699     22700     22701     22700     22702     22701     22702
     22703     22704     22703     22705     22704     22705     22706     22707
     22706     22708     22707     22708     22709     22710     22709     22711
     22710     22711     22712     22713     22712     22714     22713     22714
     22715     22716     22715     22717     22716     22717     22718     22719
     22718     22720     22719     22720     22721     22722     22721     22723
     22722     22723     22724     22725     22724     22726     22725     22726
     22727     22728     22727     22729     22728     22729     22730     22731
     22730     22732     22731     22732     22733     22734     22733     22735
     22734     22735     22736     22737     22736     22738     22737     22738
     22739     22740     22739     22741     22740     22741     22742     22743
     22742     22744     22743     22744     22745     22746     22745     22747
     22746     22747     22748     22749     22748     22750     22749     22750
     22751     22752     22751     22753     22752     22753     22754     22755
     22754     22756     22755     22756     22757     22758     22757     22759
     22758     22759     22760     22761     22760     22762     22761     22762
     22763     22764     22763     22765     22764     22765     22766     22767
     22766     22768     22767     22768     22769     22770     22769     22771
     22770     22771     22772     22773     22772     22774     22773     22774
     22775     22776     22775     22777     22776     22777     22778     22779
     22778     22780     22779     22780     22781     22782     22781     22783
     22782     22783     22784     22785     22784     22786     22785     22786
     22787     22788     22787     22789     22788     22789     22790     22791
     22790     22792     22791     22792     22793     22794     22793     22795
     22794     22795     22796     22797     22796     22798     22797     22798
     22799     22800     22799     22801     22800     22801     22802     22803
     22802     22804     22803     22804     22805     22806     22805     22807
     22806     22807     22808     22809     22808     22810     22809     22810
     22811     22812     22811     22813     22812     22813     22814     22815
     22814     22816     22815     22816     22817     22818     22817     22819
     22818     22819     22820     22821     22820     22822     22821     22822
     22823     22824     22823     22825     22824     22825     22826     22827
     22826     22828     22827     22828     22829     22830     22829     22831
     22830     22831     22832     22833     22832     22834     22833     22834
     22835     22836     22835     22837     22836     22837     22838     22839
     22838     22840     22839     22840     22841     22842     22841     22843
     22842     22843     22844     22845     22844     22846     22845     22846
     22847     22848     22847     22849     22848     22849     22850     22851
     22850     22852     22851     22852     22853     22854     22853     22855
     22854     22855     22856     22857     22856     22858     22857     22858
     22859     22860     22859     22861     22860     22861     22862     22863
     22862     22864     22863     22864     22865     22866     22865     22867
     22866     22867     22868     22869     22868     22870     22869     22870
     22871     22872     22871     22873     22872     22873     22874     22875
     22874     22876     22875     22876     22877     22878     22877     22879
     22878     22879     22880     22881     22880     22882     22881     22882
     22883     22884     22883     22885     22884     22885     22886     22887
     22886     22888     22887     22888     22889     22890     22889     22891
     22890     22891     22892     22893     22892     22894     22893     22894
     22895     22896     22895     22897     22896     22897     22898     22899
     22898     22900     22899     22900     22901     22902     22901     22903
     22902     22903     22904     22905     22904     22906     22905     22906
     22907     22908     22907     22909     22908     22909     22910     22911
     22910     22912     22911     22912     22913     22914     22913     22915
     22914     22915     22916     22917     22916     22918     22917     22918
     22919     22920     22919     22921     22920     22921     22922     22923
     22922     22924     22923     22924     22925     22926     22925     22927
     22926     22927     22928     22929     22928     22930     22929     22930
     22931     22932     22931     22933     22932     22933     22934     22935
     22934     22936     22935     22936     22937     22938     22937     22939
     22938     22939     22940     22941     22940     22942     22941     22942
     22943     22944     22943     22945     22944     22945     22946     22947
     22946     22948     22947     22948     22949     22950     22949     22951
     22950     22951     22952     22953     22952     22954     22953     22954
     22955     22956     22955     22957     22956     22957     22958     22959
     22958     22960     22959     22960     22961     22962     22961     22963
     22962     22963     22964     22965     22964     22966     22965     22966
     22967     22968     22967     22969     22968     22969     22970     22971
     22970     22972     22971     22972     22973     22974     22973     22975
     22974     22975     22976     22977     22976     22978     22977     22978
     22979     22980     22979     22981     22980     22981     22982     22983
     22982     22984     22983     22984     22985     22986     22985     22987
     22986     22987     22988     22989     22988     22990     22989     22990
     22991     22992     22991     22993     22992     22993     22994     22995
     22994     22996     22995     22996     22997     22998     22997     22999
     22998     22999     23000     23001     23000     23002     23001     23002
     23003     23004     23003     23005     23004     23005     23006     23007
     23006     23008     23007     23008     23009     23010     23009     23011
     23010     23011     23012     23013     23012     23014     23013     23014
     23015     23016     23015     23017     23016     23017     23018     23019
     23018     23020     23019     23020     23021     23022     23021     23023
     23022     23023     23024     23025     23024     23026     23025     23026
     23027     23028     23027     23029     23028     23029     23030     23031
     23030     23032     23031     23032     23033     23034     23033     23035
     23034     23035     23036     23037     23036     23038     23037     23038
     23039     23040     23039     23041     23040     23041     23042     23043
     23042     23044     23043     23044     23045     23046     23045     23047
     23046     23047     23048     23049     23048     23050     23049     23050
     23051     23052     23051     23053     23052     23053     23054     23055
     23054     23056     23055     23056     23057     23058     23057     23059
     23058     23059     23060     23061     23060     23062     23061     23062
     23063     23064     23063     23065     23064     23065     23066     23067
     23066     23068     23067     23068     23069     23070     23069     23071
     23070     23071     23072     23073     23072     23074     23073     23074
     23075     23076     23075     23077     23076     23077     23078     23079
     23078     23080     23079     23080     23081     23082     23081     23083
     23082     23083     23084     23085     23084     23086     23085     23086
     23087     23088     23087     23089     23088     23089     23090     23091
     23090     23092     23091     23092     23093     23094     23093     23095
     23094     23095     23096     23097     23096     23098     23097     23098
     23099     23100     23099     23101     23100     23101     23102     23103
     23102     23104     23103     23104     23105     23106     23105     23107
     23106     23107     23108     23109     23108     23110     23109     23110
     23111     23112     23111     23113     23112     23113     23114     23115
     23114     23116     23115     23116     23117     23118     23117     23119
     23118     23119     23120     23121     23120     23122     23121     23122
     23123     23124     23123     23125     23124     23125     23126     23127
     23126     23128     23127     23128     23129     23130     23129     23131
     23130     23131     23132     23133     23132     23134     23133     23134
     23135     23136     23135     23137     23136     23137     23138     23139
     23138     23140     23139     23140     23141     23142     23141     23143
     23142     23143     23144     23145     23144     23146     23145     23146
     23147     23148     23147     23149     23148     23149     23150     23151
     23150     23152     23151     23152     23153     23154     23153     23155
     23154     23155     23156     23157     23156     23158     23157     23158
     23159     23160     23159     23161     23160     23161     23162     23163
     23162     23164     23163     23164     23165     23166     23165     23167
     23166     23167     23168     23169     23168     23170     23169     23170
     23171     23172     23171     23173     23172     23173     23174     23175
     23174     23176     23175     23176     23177     23178     23177     23179
     23178     23179     23180     23181     23180     23182     23181     23182
     23183     23184     23183     23185     23184     23185     23186     23187
     23186     23188     23187     23188     23189     23190     23189     23191
     23190     23191     23192     23193     23192     23194     23193     23194
     23195     23196     23195     23197     23196     23197     23198     23199
     23198     23200     23199     23200     23201     23202     23201     23203
     23202     23203     23204     23205     23204     23206     23205     23206
     23207     23208     23207     23209     23208     23209     23210     23211
     23210     23212     23211     23212     23213     23214     23213     23215
     23214     23215     23216     23217     23216     23218     23217     23218
     23219     23220     23219     23221     23220     23221     23222     23223
     23222     23224     23223     23224     23225     23226     23225     23227
     23226     23227     23228     23229     23228     23230     23229     23230
     23231     23232     23231     23233     23232     23233     23234     23235
     23234     23236     23235     23236     23237     23238     23237     23239
     23238     23239     23240     23241     23240     23242     23241     23242
     23243     23244     23243     23245     23244     23245     23246     23247
     23246     23248     23247     23248     23249     23250     23249     23251
     23250     23251     23252     23253     23252     23254     23253     23254
     23255     23256     23255     23257     23256     23257     23258     23259
     23258     23260     23259     23260     23261     23262     23261     23263
     23262     23263     23264     23265     23264     23266     23265     23266
     23267     23268     23267     23269     23268     23269     23270     23271
     23270     23272     23271     23272     23273     23274     23273     23275
     23274     23275     23276     23277     23276     23278     23277     23278
     23279     23280     23279     23281     23280     23281     23282     23283
     23282     23284     23283     23284     23285     23286     23285     23287
     23286     23287     23288     23289     23288     23290     23289     23290
     23291     23292     23291     23293     23292     23293     23294     23295
     23294     23296     23295     23296     23297     23298     23297     23299
     23298     23299     23300     23301     23300     23302     23301     23302
     23303     23304     23303     23305     23304     23305     23306     23307
     23306     23308     23307     23308     23309     23310     23309     23311
     23310     23311     23312     23313     23312     23314     23313     23314
     23315     23316     23315     23317     23316     23317     23318     23319
     23318     23320     23319     23320     23321     23322     23321     23323
     23322     23323     23324     23325     23324     23326     23325     23326
     23327     23328     23327     23329     23328     23329     23330     23331
     23330     23332     23331     23332     23333     23334     23333     23335
     23334     23335     23336     23337     23336     23338     23337     23338
     23339     23340     23339     23341     23340     23341     23342     23343
     23342     23344     23343     23344     23345     23346     23345     23347
     23346     23347     23348     23349     23348     23350     23349     23350
     23351     23352     23351     23353     23352     23353     23354     23355
     23354     23356     23355     23356     23357     23358     23357     23359
     23358     23359     23360     23361     23360     23362     23361     23362
     23363     23364     23363     23365     23364     23365     23366     23367
     23366     23368     23367     23368     23369     23370     23369     23371
     23370     23371     23372     23373     23372     23374     23373     23374
     23375     23376     23375     23377     23376     23377     23378     23379
     23378     23380     23379     23380     23381     23382     23381     23383
     23382     23383     23384     23385     23384     23386     23385     23386
     23387     23388     23387     23389     23388     23389     23390     23391
     23390     23392     23391     23392     23393     23394     23393     23395
     23394     23395     23396     23397     23396     23398     23397     23398
     23399     23400     23399     23401     23400     23401     23402     23403
     23402     23404     23403     23404     23405     23406     23405     23407
     23406     23407     23408     23409     23408     23410     23409     23410
     23411     23412     23411     23413     23412     23413     23414     23415
     23414     23416     23415     23416     23417     23418     23417     23419
     23418     23419     23420     23421     23420     23422     23421     23422
     23423     23424     23423     23425     23424     23425     23426     23427
     23426     23428     23427     23428     23429     23430     23429     23431
     23430     23431     23432     23433     23432     23434     23433     23434
     23435     23436     23435     23437     23436     23437     23438     23439
     23438     23440     23439     23440     23441     23442     23441     23443
     23442     23443     23444     23445     23444     23446     23445     23446
     23447     23448     23447     23449     23448     23449     23450     23451
     23450     23452     23451     23452     23453     23454     23453     23455
     23454     23455     23456     23457     23456     23458     23457     23458
     23459     23460     23459     23461     23460     23461     23462     23463
     23462     23464     23463     23464     23465     23466     23465     23467
     23466     23467     23468     23469     23468     23470     23469     23470
     23471     23472     23471     23473     23472     23473     23474     23475
     23474     23476     23475     23476     23477     23478     23477     23479
     23478     23479     23480     23481     23480     23482     23481     23482
     23483     23484     23483     23485     23484     23485     23486     23487
     23486     23488     23487     23488     23489     23490     23489     23491
     23490     23491     23492     23493     23492     23494     23493     23494
     23495     23496     23495     23497     23496     23497     23498     23499
     23498     23500     23499     23500     23501     23502     23501     23503
     23502     23503     23504     23505     23504     23506     23505     23506
     23507     23508     23507     23509     23508     23509     23510     23511
     23510     23512     23511     23512     23513     23514     23513     23515
     23514     23515     23516     23517     23516     23518     23517     23518
     23519     23520     23519     23521     23520     23521     23522     23523
     23522     23524     23523     23524     23525     23526     23525     23527
     23526     23527     23528     23529     23528     23530     23529     23530
     23531     23532     23531     23533     23532     23533     23534     23535
     23534     23536     23535     23536     23537     23538     23537     23539
     23538     23539     23540     23541     23540     23542     23541     23542
     23543     23544     23543     23545     23544     23545     23546     23547
     23546     23548     23547     23548     23549     23550     23549     23551
     23550     23551     23552     23553     23552     23554     23553     23554
     23555     23556     23555     23557     23556     23557     23558     23559
     23558     23560     23559     23560     23561     23562     23561     23563
     23562     23563     23564     23565     23564     23566     23565     23566
     23567     23568     23567     23569     23568     23569     23570     23571
     23570     23572     23571     23572     23573     23574     23573     23575
     23574     23575     23576     23577     23576     23578     23577     23578
     23579     23580     23579     23581     23580     23581     23582     23583
     23582     23584     23583     23584     23585     23586     23585     23587
     23586     23587     23588     23589     23588     23590     23589     23590
     23591     23592     23591     23593     23592     23593     23594     23595
     23594     23596     23595     23596     23597     23598     23597     23599
     23598     23599     23600     23601     23600     23602     23601     23602
     23603     23604     23603     23605     23604     23605     23606     23607
     23606     23608     23607     23608     23609     23610     23609     23611
     23610     23611     23612     23613     23612     23614     23613     23614
     23615     23616     23615     23617     23616     23617     23618     23619
     23618     23620     23619     23620     23621     23622     23621     23623
     23622     23623     23624     23625     23624     23626     23625     23626
     23627     23628     23627     23629     23628     23629     23630     23631
     23630     23632     23631     23632     23633     23634     23633     23635
     23634     23635     23636     23637     23636     23638     23637     23638
     23639     23640     23639     23641     23640     23641     23642     23643
     23642     23644     23643     23644     23645     23646     23645     23647
     23646     23647     23648     23649     23648     23650     23649     23650
     23651     23652     23651     23653     23652     23653     23654     23655
     23654     23656     23655     23656     23657     23658     23657     23659
     23658     23659     23660     23661     23660     23662     23661     23662
     23663     23664     23663     23665     23664     23665     23666     23667
     23666     23668     23667     23668     23669     23670     23669     23671
     23670     23671     23672     23673     23672     23674     23673     23674
     23675     23676     23675     23677     23676     23677     23678     23679
     23678     23680     23679     23680     23681     23682     23681     23683
     23682     23683     23684     23685     23684     23686     23685     23686
     23687     23688     23687     23689     23688     23689     23690     23691
     23690     23692     23691     23692     23693     23694     23693     23695
     23694     23695     23696     23697     23696     23698     23697     23698
     23699     23700     23699     23701     23700     23701     23702     23703
     23702     23704     23703     23704     23705     23706     23705     23707
     23706     23707     23708     23709     23708     23710     23709     23710
     23711     23712     23711     23713     23712     23713     23714     23715
     23714     23716     23715     23716     23717     23718     23717     23719
     23718     23719     23720     23721     23720     23722     23721     23722
     23723     23724     23723     23725     23724     23725     23726     23727
     23726     23728     23727     23728     23729     23730     23729     23731
     23730     23731     23732     23733     23732     23734     23733     23734
     23735     23736     23735     23737     23736     23737     23738     23739
     23738     23740     23739     23740     23741     23742     23741     23743
     23742     23743     23744     23745     23744     23746     23745     23746
     23747     23748     23747     23749     23748     23749     23750     23751
     23750     23752     23751     23752     23753     23754     23753     23755
     23754     23755     23756     23757     23756     23758     23757     23758
     23759     23760     23759     23761     23760     23761     23762     23763
     23762     23764     23763     23764     23765     23766     23765     23767
     23766     23767     23768     23769     23768     23770     23769     23770
     23771     23772     23771     23773     23772     23773     23774     23775
     23774     23776     23775     23776     23777     23778     23777     23779
     23778     23779     23780     23781     23780     23782     23781     23782
     23783     23784     23783     23785     23784     23785     23786     23787
     23786     23788     23787     23788     23789     23790     23789     23791
     23790     23791     23792     23793     23792     23794     23793     23794
     23795     23796     23795     23797     23796     23797     23798     23799
     23798     23800     23799     23800     23801     23802     23801     23803
     23802     23803     23804     23805     23804     23806     23805     23806
     23807     23808     23807     23809     23808     23809     23810     23811
     23810     23812     23811     23812     23813     23814     23813     23815
     23814     23815     23816     23817     23816     23818     23817     23818
     23819     23820     23819     23821     23820     23821     23822     23823
     23822     23824     23823     23824     23825     23826     23825     23827
     23826     23827     23828     23829     23828     23830     23829     23830
     23831     23832     23831     23833     23832     23833     23834     23835
     23834     23836     23835     23836     23837     23838     23837     23839
     23838     23839     23840     23841     23840     23842     23841     23842
     23843     23844     23843     23845     23844     23845     23846     23847
     23846     23848     23847     23848     23849     23850     23849     23851
     23850     23851     23852     23853     23852     23854     23853     23854
     23855     23856     23855     23857     23856     23857     23858     23859
     23858     23860     23859     23860     23861     23862     23861     23863
     23862     23863     23864     23865     23864     23866     23865     23866
     23867     23868     23867     23869     23868     23869     23870     23871
     23870     23872     23871     23872     23873     23874     23873     23875
     23874     23875     23876     23877     23876     23878     23877     23878
     23879     23880     23879     23881     23880     23881     23882     23883
     23882     23884     23883     23884     23885     23886     23885     23887
     23886     23887     23888     23889     23888     23890     23889     23890
     23891     23892     23891     23893     23892     23893     23894     23895
     23894     23896     23895     23896     23897     23898     23897     23899
     23898     23899     23900     23901     23900     23902     23901     23902
     23903     23904     23903     23905     23904     23905     23906     23907
     23906     23908     23907     23908     23909     23910     23909     23911
     23910     23911     23912     23913     23912     23914     23913     23914
     23915     23916     23915     23917     23916     23917     23918     23919
     23918     23920     23919     23920     23921     23922     23921     23923
     23922     23923     23924     23925     23924     23926     23925     23926
     23927     23928     23927     23929     23928     23929     23930     23931
     23930     23932     23931     23932     23933     23934     23933     23935
     23934     23935     23936     23937     23936     23938     23937     23938
     23939     23940     23939     23941     23940     23941     23942     23943
     23942     23944     23943     23944     23945     23946     23945     23947
     23946     23947     23948     23949     23948     23950     23949     23950
     23951     23952     23951     23953     23952     23953     23954     23955
     23954     23956     23955     23956     23957     23958     23957     23959
     23958     23959     23960     23961     23960     23962     23961     23962
     23963     23964     23963     23965     23964     23965     23966     23967
     23966     23968     23967     23968     23969     23970     23969     23971
     23970     23971     23972     23973     23972     23974     23973     23974
     23975     23976     23975     23977     23976     23977     23978     23979
     23978     23980     23979     23980     23981     23982     23981     23983
     23982     23983     23984     23985     23984     23986     23985     23986
     23987     23988     23987     23989     23988     23989     23990     23991
     23990     23992     23991     23992     23993     23994     23993     23995
     23994     23995     23996     23997     23996     23998     23997     23998
     23999     24000     23999     24001     24000     24001     24002     24003
     24002     24004     24003     24004     24005     24006     24005     24007
     24006     24007     24008     24009     24008     24010     24009     24010
     24011     24012     24011     24013     24012     24013     24014     24015
     24014     24016     24015     24016     24017     24018     24017     24019
     24018     24019     24020     24021     24020     24022     24021     24022
     24023     24024     24023     24025     24024     24025     24026     24027
     24026     24028     24027     24028     24029     24030     24029     24031
     24030     24031     24032     24033     24032     24034     24033     24034
     24035     24036     24035     24037     24036     24037     24038     24039
     24038     24040     24039     24040     24041     24042     24041     24043
     24042     24043     24044     24045     24044     24046     24045     24046
     24047     24048     24047     24049     24048     24049     24050     24051
     24050     24052     24051     24052     24053     24054     24053     24055
     24054     24055     24056     24057     24056     24058     24057     24058
     24059     24060     24059     24061     24060     24061     24062     24063
     24062     24064     24063     24064     24065     24066     24065     24067
     24066     24067     24068     24069     24068     24070     24069     24070
     24071     24072     24071     24073     24072     24073     24074     24075
     24074     24076     24075     24076     24077     24078     24077     24079
     24078     24079     24080     24081     24080     24082     24081     24082
     24083     24084     24083     24085     24084     24085     24086     24087
     24086     24088     24087     24088     24089     24090     24089     24091
     24090     24091     24092     24093     24092     24094     24093     24094
     24095     24096     24095     24097     24096     24097     24098     24099
     24098     24100     24099     24100     24101     24102     24101     24103
     24102     24103     24104     24105     24104     24106     24105     24106
     24107     24108     24107     24109     24108     24109     24110     24111
     24110     24112     24111     24112     24113     24114     24113     24115
     24114     24115     24116     24117     24116     24118     24117     24118
     24119     24120     24119     24121     24120     24121     24122     24123
     24122     24124     24123     24124     24125     24126     24125     24127
     24126     24127     24128     24129     24128     24130     24129     24130
     24131     24132     24131     24133     24132     24133     24134     24135
     24134     24136     24135     24136     24137     24138     24137     24139
     24138     24139     24140     24141     24140     24142     24141     24142
     24143     24144     24143     24145     24144     24145     24146     24147
     24146     24148     24147     24148     24149     24150     24149     24151
     24150     24151     24152     24153     24152     24154     24153     24154
     24155     24156     24155     24157     24156     24157     24158     24159
     24158     24160     24159     24160     24161     24162     24161     24163
     24162     24163     24164     24165     24164     24166     24165     24166
     24167     24168     24167     24169     24168     24169     24170     24171
     24170     24172     24171     24172     24173     24174     24173     24175
     24174     24175     24176     24177     24176     24178     24177     24178
     24179     24180     24179     24181     24180     24181     24182     24183
     24182     24184     24183     24184     24185     24186     24185     24187
     24186     24187     24188     24189     24188     24190     24189     24190
     24191     24192     24191     24193     24192     24193     24194     24195
     24194     24196     24195     24196     24197     24198     24197     24199
     24198     24199     24200     24201     24200     24202     24201     24202
     24203     24204     24203     24205     24204     24205     24206     24207
     24206     24208     24207     24208     24209     24210     24209     24211
     24210     24211     24212     24213     24212     24214     24213     24214
     24215     24216     24215     24217     24216     24217     24218     24219
     24218     24220     24219     24220     24221     24222     24221     24223
     24222     24223     24224     24225     24224     24226     24225     24226
     24227     24228     24227     24229     24228     24229     24230     24231
     24230     24232     24231     24232     24233     24234     24233     24235
     24234     24235     24236     24237     24236     24238     24237     24238
     24239     24240     24239     24241     24240     24241     24242     24243
     24242     24244     24243     24244     24245     24246     24245     24247
     24246     24247     24248     24249     24248     24250     24249     24250
     24251     24252     24251     24253     24252     24253     24254     24255
     24254     24256     24255     24256     24257     24258     24257     24259
     24258     24259     24260     24261     24260     24262     24261     24262
     24263     24264     24263     24265     24264     24265     24266     24267
     24266     24268     24267     24268     24269     24270     24269     24271
     24270     24271     24272     24273     24272     24274     24273     24274
     24275     24276     24275     24277     24276     24277     24278     24279
     24278     24280     24279     24280     24281     24282     24281     24283
     24282     24283     24284     24285     24284     24286     24285     24286
     24287     24288     24287     24289     24288     24289     24290     24291
     24290     24292     24291     24292     24293     24294     24293     24295
     24294     24295     24296     24297     24296     24298     24297     24298
     24299     24300     24299     24301     24300     24301     24302     24303
     24302     24304     24303     24304     24305     24306     24305     24307
     24306     24307     24308     24309     24308     24310     24309     24310
     24311     24312     24311     24313     24312     24313     24314     24315
     24314     24316     24315     24316     24317     24318     24317     24319
     24318     24319     24320     24321     24320     24322     24321     24322
     24323     24324     24323     24325     24324     24325     24326     24327
     24326     24328     24327     24328     24329     24330     24329     24331
     24330     24331     24332     24333     24332     24334     24333     24334
     24335     24336     24335     24337     24336     24337     24338     24339
     24338     24340     24339     24340     24341     24342     24341     24343
     24342     24343     24344     24345     24344     24346     24345     24346
     24347     24348     24347     24349     24348     24349     24350     24351
     24350     24352     24351     24352     24353     24354     24353     24355
     24354     24355     24356     24357     24356     24358     24357     24358
     24359     24360     24359     24361     24360     24361     24362     24363
     24362     24364     24363     24364     24365     24366     24365     24367
     24366     24367     24368     24369     24368     24370     24369     24370
     24371     24372     24371     24373     24372     24373     24374     24375
     24374     24376     24375     24376     24377     24378     24377     24379
     24378     24379     24380     24381     24380     24382     24381     24382
     24383     24384     24383     24385     24384     24385     24386     24387
     24386     24388     24387     24388     24389     24390     24389     24391
     24390     24391     24392     24393     24392     24394     24393     24394
     24395     24396     24395     24397     24396     24397     24398     24399
     24398     24400     24399     24400     24401     24402     24401     24403
     24402     24403     24404     24405     24404     24406     24405     24406
     24407     24408     24407     24409     24408     24409     24410     24411
     24410     24412     24411     24412     24413     24414     24413     24415
     24414     24415     24416     24417     24416     24418     24417     24418
     24419     24420     24419     24421     24420     24421     24422     24423
     24422     24424     24423     24424     24425     24426     24425     24427
     24426     24427     24428     24429     24428     24430     24429     24430
     24431     24432     24431     24433     24432     24433     24434     24435
     24434     24436     24435     24436     24437     24438     24437     24439
     24438     24439     24440     24441     24440     24442     24441     24442
     24443     24444     24443     24445     24444     24445     24446     24447
     24446     24448     24447     24448     24449     24450     24449     24451
     24450     24451     24452     24453     24452     24454     24453     24454
     24455     24456     24455     24457     24456     24457     24458     24459
     24458     24460     24459     24460     24461     24462     24461     24463
     24462     24463     24464     24465     24464     24466     24465     24466
     24467     24468     24467     24469     24468     24469     24470     24471
     24470     24472     24471     24472     24473     24474     24473     24475
     24474     24475     24476     24477     24476     24478     24477     24478
     24479     24480     24479     24481     24480     24481     24482     24483
     24482     24484     24483     24484     24485     24486     24485     24487
     24486     24487     24488     24489     24488     24490     24489     24490
     24491     24492     24491     24493     24492     24493     24494     24495
     24494     24496     24495     24496     24497     24498     24497     24499
     24498     24499     24500     24501     24500     24502     24501     24502
     24503     24504     24503     24505     24504     24505     24506     24507
     24506     24508     24507     24508     24509     24510     24509     24511
     24510     24511     24512     24513     24512     24514     24513     24514
     24515     24516     24515     24517     24516     24517     24518     24519
     24518     24520     24519     24520     24521     24522     24521     24523
     24522     24523     24524     24525     24524     24526     24525     24526
     24527     24528     24527     24529     24528     24529     24530     24531
     24530     24532     24531     24532     24533     24534     24533     24535
     24534     24535     24536     24537     24536     24538     24537     24538
     24539     24540     24539     24541     24540     24541     24542     24543
     24542     24544     24543     24544     24545     24546     24545     24547
     24546     24547     24548     24549     24548     24550     24549     24550
     24551     24552     24551     24553     24552     24553     24554     24555
     24554     24556     24555     24556     24557     24558     24557     24559
     24558     24559     24560     24561     24560     24562     24561     24562
     24563     24564     24563     24565     24564     24565     24566     24567
     24566     24568     24567     24568     24569     24570     24569     24571
     24570     24571     24572     24573     24572     24574     24573     24574
     24575     24576     24575     24577     24576     24577     24578     24579
     24578     24580     24579     24580     24581     24582     24581     24583
     24582     24583     24584     24585     24584     24586     24585     24586
     24587     24588     24587     24589     24588     24589     24590     24591
     24590     24592     24591     24592     24593     24594     24593     24595
     24594     24595     24596     24597     24596     24598     24597     24598
     24599     24600     24599     24601     24600     24601     24602     24603
     24602     24604     24603     24604     24605     24606     24605     24607
     24606     24607     24608     24609     24608     24610     24609     24610
     24611     24612     24611     24613     24612     24613     24614     24615
     24614     24616     24615     24616     24617     24618     24617     24619
     24618     24619     24620     24621     24620     24622     24621     24622
     24623     24624     24623     24625     24624     24625     24626     24627
     24626     24628     24627     24628     24629     24630     24629     24631
     24630     24631     24632     24633     24632     24634     24633     24634
     24635     24636     24635     24637     24636     24637     24638     24639
     24638     24640     24639     24640     24641     24642     24641     24643
     24642     24643     24644     24645     24644     24646     24645     24646
     24647     24648     24647     24649     24648     24649     24650     24651
     24650     24652     24651     24652     24653     24654     24653     24655
     24654     24655     24656     24657     24656     24658     24657     24658
     24659     24660     24659     24661     24660     24661     24662     24663
     24662     24664     24663     24664     24665     24666     24665     24667
     24666     24667     24668     24669     24668     24670     24669     24670
     24671     24672     24671     24673     24672     24673     24674     24675
     24674     24676     24675     24676     24677     24678     24677     24679
     24678     24679     24680     24681     24680     24682     24681     24682
     24683     24684     24683     24685     24684     24685     24686     24687
     24686     24688     24687     24688     24689     24690     24689     24691
     24690     24691     24692     24693     24692     24694     24693     24694
     24695     24696     24695     24697     24696     24697     24698     24699
     24698     24700     24699     24700     24701     24702     24701     24703
     24702     24703     24704     24705     24704     24706     24705     24706
     24707     24708     24707     24709     24708     24709     24710     24711
     24710     24712     24711     24712     24713     24714     24713     24715
     24714     24715     24716     24717     24716     24718     24717     24718
     24719     24720     24719     24721     24720     24721     24722     24723
     24722     24724     24723     24724     24725     24726     24725     24727
     24726     24727     24728     24729     24728     24730     24729     24730
     24731     24732     24731     24733     24732     24733     24734     24735
     24734     24736     24735     24736     24737     24738     24737     24739
     24738     24739     24740     24741     24740     24742     24741     24742
     24743     24744     24743     24745     24744     24745     24746     24747
     24746     24748     24747     24748     24749     24750     24749     24751
     24750     24751     24752     24753     24752     24754     24753     24754
     24755     24756     24755     24757     24756     24757     24758     24759
     24758     24760     24759     24760     24761     24762     24761     24763
     24762     24763     24764     24765     24764     24766     24765     24766
     24767     24768     24767     24769     24768     24769     24770     24771
     24770     24772     24771     24772     24773     24774     24773     24775
     24774     24775     24776     24777     24776     24778     24777     24778
     24779     24780     24779     24781     24780     24781     24782     24783
     24782     24784     24783     24784     24785     24786     24785     24787
     24786     24787     24788     24789     24788     24790     24789     24790
     24791     24792     24791     24793     24792     24793     24794     24795
     24794     24796     24795     24796     24797     24798     24797     24799
     24798     24799     24800     24801     24800     24802     24801     24802
     24803     24804     24803     24805     24804     24805     24806     24807
     24806     24808     24807     24808     24809     24810     24809     24811
     24810     24811     24812     24813     24812     24814     24813     24814
     24815     24816     24815     24817     24816     24817     24818     24819
     24818     24820     24819     24820     24821     24822     24821     24823
     24822     24823     24824     24825     24824     24826     24825     24826
     24827     24828     24827     24829     24828     24829     24830     24831
     24830     24832     24831     24832     24833     24834     24833     24835
     24834     24835     24836     24837     24836     24838     24837     24838
     24839     24840     24839     24841     24840     24841     24842     24843
     24842     24844     24843     24844     24845     24846     24845     24847
     24846     24847     24848     24849     24848     24850     24849     24850
     24851     24852     24851     24853     24852     24853     24854     24855
     24854     24856     24855     24856     24857     24858     24857     24859
     24858     24859     24860     24861     24860     24862     24861     24862
     24863     24864     24863     24865     24864     24865     24866     24867
     24866     24868     24867     24868     24869     24870     24869     24871
     24870     24871     24872     24873     24872     24874     24873     24874
     24875     24876     24875     24877     24876     24877     24878     24879
     24878     24880     24879     24880     24881     24882     24881     24883
     24882     24883     24884     24885     24884     24886     24885     24886
     24887     24888     24887     24889     24888     24889     24890     24891
     24890     24892     24891     24892     24893     24894     24893     24895
     24894     24895     24896     24897     24896     24898     24897     24898
     24899     24900     24899     24901     24900     24901     24902     24903
     24902     24904     24903     24904     24905     24906     24905     24907
     24906     24907     24908     24909     24908     24910     24909     24910
     24911     24912     24911     24913     24912     24913     24914     24915
     24914     24916     24915     24916     24917     24918     24917     24919
     24918     24919     24920     24921     24920     24922     24921     24922
     24923     24924     24923     24925     24924     24925     24926     24927
     24926     24928     24927     24928     24929     24930     24929     24931
     24930     24931     24932     24933     24932     24934     24933     24934
     24935     24936     24935     24937     24936     24937     24938     24939
     24938     24940     24939     24940     24941     24942     24941     24943
     24942     24943     24944     24945     24944     24946     24945     24946
     24947     24948     24947     24949     24948     24949     24950     24951
     24950     24952     24951     24952     24953     24954     24953     24955
     24954     24955     24956     24957     24956     24958     24957     24958
     24959     24960     24959     24961     24960     24961     24962     24963
     24962     24964     24963     24964     24965     24966     24965     24967
     24966     24967     24968     24969     24968     24970     24969     24970
     24971     24972     24971     24973     24972     24973     24974     24975
     24974     24976     24975     24976     24977     24978     24977     24979
     24978     24979     24980     24981     24980     24982     24981     24982
     24983     24984     24983     24985     24984     24985     24986     24987
     24986     24988     24987     24988     24989     24990     24989     24991
     24990     24991     24992     24993     24992     24994     24993     24994
     24995     24996     24995     24997     24996     24997     24998     24999
     24998     25000     24999     25000     25001     25002     25001     25003
     25002     25003     25004     25005     25004     25006     25005     25006
     25007     25008     25007     25009     25008     25009     25010     25011
     25010     25012     25011     25012     25013     25014     25013     25015
     25014     25015     25016     25017     25016     25018     25017     25018
     25019     25020     25019     25021     25020     25021     25022     25023
     25022     25024     25023     25024     25025     25026     25025     25027
     25026     25027     25028     25029     25028     25030     25029     25030
     25031     25032     25031     25033     25032     25033     25034     25035
     25034     25036     25035     25036     25037     25038     25037     25039
     25038     25039     25040     25041     25040     25042     25041     25042
     25043     25044     25043     25045     25044     25045     25046     25047
     25046     25048     25047     25048     25049     25050     25049     25051
     25050     25051     25052     25053     25052     25054     25053     25054
     25055     25056     25055     25057     25056     25057     25058     25059
     25058     25060     25059     25060     25061     25062     25061     25063
     25062     25063     25064     25065     25064     25066     25065     25066
     25067     25068     25067     25069     25068     25069     25070     25071
     25070     25072     25071     25072     25073     25074     25073     25075
     25074     25075     25076     25077     25076     25078     25077     25078
     25079     25080     25079     25081     25080     25081     25082     25083
     25082     25084     25083     25084     25085     25086     25085     25087
     25086     25087     25088     25089     25088     25090     25089     25090
     25091     25092     25091     25093     25092     25093     25094     25095
     25094     25096     25095     25096     25097     25098     25097     25099
     25098     25099     25100     25101     25100     25102     25101     25102
     25103     25104     25103     25105     25104     25105     25106     25107
     25106     25108     25107     25108     25109     25110     25109     25111
     25110     25111     25112     25113     25112     25114     25113     25114
     25115     25116     25115     25117     25116     25117     25118     25119
     25118     25120     25119     25120     25121     25122     25121     25123
     25122     25123     25124     25125     25124     25126     25125     25126
     25127     25128     25127     25129     25128     25129     25130     25131
     25130     25132     25131     25132     25133     25134     25133     25135
     25134     25135     25136     25137     25136     25138     25137     25138
     25139     25140     25139     25141     25140     25141     25142     25143
     25142     25144     25143     25144     25145     25146     25145     25147
     25146     25147     25148     25149     25148     25150     25149     25150
     25151     25152     25151     25153     25152     25153     25154     25155
     25154     25156     25155     25156     25157     25158     25157     25159
     25158     25159     25160     25161     25160     25162     25161     25162
     25163     25164     25163     25165     25164     25165     25166     25167
     25166     25168     25167     25168     25169     25170     25169     25171
     25170     25171     25172     25173     25172     25174     25173     25174
     25175     25176     25175     25177     25176     25177     25178     25179
     25178     25180     25179     25180     25181     25182     25181     25183
     25182     25183     25184     25185     25184     25186     25185     25186
     25187     25188     25187     25189     25188     25189     25190     25191
     25190     25192     25191     25192     25193     25194     25193     25195
     25194     25195     25196     25197     25196     25198     25197     25198
     25199     25200     25199     25201     25200     25201     25202     25203
     25202     25204     25203     25204     25205     25206     25205     25207
     25206     25207     25208     25209     25208     25210     25209     25210
     25211     25212     25211     25213     25212     25213     25214     25215
     25214     25216     25215     25216     25217     25218     25217     25219
     25218     25219     25220     25221     25220     25222     25221     25222
     25223     25224     25223     25225     25224     25225     25226     25227
     25226     25228     25227     25228     25229     25230     25229     25231
     25230     25231     25232     25233     25232     25234     25233     25234
     25235     25236     25235     25237     25236     25237     25238     25239
     25238     25240     25239     25240     25241     25242     25241     25243
     25242     25243     25244     25245     25244     25246     25245     25246
     25247     25248     25247     25249     25248     25249     25250     25251
     25250     25252     25251     25252     25253     25254     25253     25255
     25254     25255     25256     25257     25256     25258     25257     25258
     25259     25260     25259     25261     25260     25261     25262     25263
     25262     25264     25263     25264     25265     25266     25265     25267
     25266     25267     25268     25269     25268     25270     25269     25270
     25271     25272     25271     25273     25272     25273     25274     25275
     25274     25276     25275     25276     25277     25278     25277     25279
     25278     25279     25280     25281     25280     25282     25281     25282
     25283     25284     25283     25285     25284     25285     25286     25287
     25286     25288     25287     25288     25289     25290     25289     25291
     25290     25291     25292     25293     25292     25294     25293     25294
     25295     25296     25295     25297     25296     25297     25298     25299
     25298     25300     25299     25300     25301     25302     25301     25303
     25302     25303     25304     25305     25304     25306     25305     25306
     25307     25308     25307     25309     25308     25309     25310     25311
     25310     25312     25311     25312     25313     25314     25313     25315
     25314     25315     25316     25317     25316     25318     25317     25318
     25319     25320     25319     25321     25320     25321     25322     25323
     25322     25324     25323     25324     25325     25326     25325     25327
     25326     25327     25328     25329     25328     25330     25329     25330
     25331     25332     25331     25333     25332     25333     25334     25335
     25334     25336     25335     25336     25337     25338     25337     25339
     25338     25339     25340     25341     25340     25342     25341     25342
     25343     25344     25343     25345     25344     25345     25346     25347
     25346     25348     25347     25348     25349     25350     25349     25351
     25350     25351     25352     25353     25352     25354     25353     25354
     25355     25356     25355     25357     25356     25357     25358     25359
     25358     25360     25359     25360     25361     25362     25361     25363
     25362     25363     25364     25365     25364     25366     25365     25366
     25367     25368     25367     25369     25368     25369     25370     25371
     25370     25372     25371     25372     25373     25374     25373     25375
     25374     25375     25376     25377     25376     25378     25377     25378
     25379     25380     25379     25381     25380     25381     25382     25383
     25382     25384     25383     25384     25385     25386     25385     25387
     25386     25387     25388     25389     25388     25390     25389     25390
     25391     25392     25391     25393     25392     25393     25394     25395
     25394     25396     25395     25396     25397     25398     25397     25399
     25398     25399     25400     25401     25400     25402     25401     25402
     25403     25404     25403     25405     25404     25405     25406     25407
     25406     25408     25407     25408     25409     25410     25409     25411
     25410     25411     25412     25413     25412     25414     25413     25414
     25415     25416     25415     25417     25416     25417     25418     25419
     25418     25420     25419     25420     25421     25422     25421     25423
     25422     25423     25424     25425     25424     25426     25425     25426
     25427     25428     25427     25429     25428     25429     25430     25431
     25430     25432     25431     25432     25433     25434     25433     25435
     25434     25435     25436     25437     25436     25438     25437     25438
     25439     25440     25439     25441     25440     25441     25442     25443
     25442     25444     25443     25444     25445     25446     25445     25447
     25446     25447     25448     25449     25448     25450     25449     25450
     25451     25452     25451     25453     25452     25453     25454     25455
     25454     25456     25455     25456     25457     25458     25457     25459
     25458     25459     25460     25461     25460     25462     25461     25462
     25463     25464     25463     25465     25464     25465     25466     25467
     25466     25468     25467     25468     25469     25470     25469     25471
     25470     25471     25472     25473     25472     25474     25473     25474
     25475     25476     25475     25477     25476     25477     25478     25479
     25478     25480     25479     25480     25481     25482     25481     25483
     25482     25483     25484     25485     25484     25486     25485     25486
     25487     25488     25487     25489     25488     25489     25490     25491
     25490     25492     25491     25492     25493     25494     25493     25495
     25494     25495     25496     25497     25496     25498     25497     25498
     25499     25500     25499     25501     25500     25501     25502     25503
     25502     25504     25503     25504     25505     25506     25505     25507
     25506     25507     25508     25509     25508     25510     25509     25510
     25511     25512     25511     25513     25512     25513     25514     25515
     25514     25516     25515     25516     25517     25518     25517     25519
     25518     25519     25520     25521     25520     25522     25521     25522
     25523     25524     25523     25525     25524     25525     25526     25527
     25526     25528     25527     25528     25529     25530     25529     25531
     25530     25531     25532     25533     25532     25534     25533     25534
     25535     25536     25535     25537     25536     25537     25538     25539
     25538     25540     25539     25540     25541     25542     25541     25543
     25542     25543     25544     25545     25544     25546     25545     25546
     25547     25548     25547     25549     25548     25549     25550     25551
     25550     25552     25551     25552     25553     25554     25553     25555
     25554     25555     25556     25557     25556     25558     25557     25558
     25559     25560     25559     25561     25560     25561     25562     25563
     25562     25564     25563     25564     25565     25566     25565     25567
     25566     25567     25568     25569     25568     25570     25569     25570
     25571     25572     25571     25573     25572     25573     25574     25575
     25574     25576     25575     25576     25577     25578     25577     25579
     25578     25579     25580     25581     25580     25582     25581     25582
     25583     25584     25583     25585     25584     25585     25586     25587
     25586     25588     25587     25588     25589     25590     25589     25591
     25590     25591     25592     25593     25592     25594     25593     25594
     25595     25596     25595     25597     25596     25597     25598     25599
     25598     25600     25599     25600     25601     25602     25601     25603
     25602     25603     25604     25605     25604     25606     25605     25606
     25607     25608     25607     25609     25608     25609     25610     25611
     25610     25612     25611     25612     25613     25614     25613     25615
     25614     25615     25616     25617     25616     25618     25617     25618
     25619     25620     25619     25621     25620     25621     25622     25623
     25622     25624     25623     25624     25625     25626     25625     25627
     25626     25627     25628     25629     25628     25630     25629     25630
     25631     25632     25631     25633     25632     25633     25634     25635
     25634     25636     25635     25636     25637     25638     25637     25639
     25638     25639     25640     25641     25640     25642     25641     25642
     25643     25644     25643     25645     25644     25645     25646     25647
     25646     25648     25647     25648     25649     25650     25649     25651
     25650     25651     25652     25653     25652     25654     25653     25654
     25655     25656     25655     25657     25656     25657     25658     25659
     25658     25660     25659     25660     25661     25662     25661     25663
     25662     25663     25664     25665     25664     25666     25665     25666
     25667     25668     25667     25669     25668     25669     25670     25671
     25670     25672     25671     25672     25673     25674     25673     25675
     25674     25675     25676     25677     25676     25678     25677     25678
     25679     25680     25679     25681     25680     25681     25682     25683
     25682     25684     25683     25684     25685     25686     25685     25687
     25686     25687     25688     25689     25688     25690     25689     25690
     25691     25692     25691     25693     25692     25693     25694     25695
     25694     25696     25695     25696     25697     25698     25697     25699
     25698     25699     25700     25701     25700     25702     25701     25702
     25703     25704     25703     25705     25704     25705     25706     25707
     25706     25708     25707     25708     25709     25710     25709     25711
     25710     25711     25712     25713     25712     25714     25713     25714
     25715     25716     25715     25717     25716     25717     25718     25719
     25718     25720     25719     25720     25721     25722     25721     25723
     25722     25723     25724     25725     25724     25726     25725     25726
     25727     25728     25727     25729     25728     25729     25730     25731
     25730     25732     25731     25732     25733     25734     25733     25735
     25734     25735     25736     25737     25736     25738     25737     25738
     25739     25740     25739     25741     25740     25741     25742     25743
     25742     25744     25743     25744     25745     25746     25745     25747
     25746     25747     25748     25749     25748     25750     25749     25750
     25751     25752     25751     25753     25752     25753     25754     25755
     25754     25756     25755     25756     25757     25758     25757     25759
     25758     25759     25760     25761     25760     25762     25761     25762
     25763     25764     25763     25765     25764     25765     25766     25767
     25766     25768     25767     25768     25769     25770     25769     25771
     25770     25771     25772     25773     25772     25774     25773     25774
     25775     25776     25775     25777     25776     25777     25778     25779
     25778     25780     25779     25780     25781     25782     25781     25783
     25782     25783     25784     25785     25784     25786     25785     25786
     25787     25788     25787     25789     25788     25789     25790     25791
     25790     25792     25791     25792     25793     25794     25793     25795
     25794     25795     25796     25797     25796     25798     25797     25798
     25799     25800     25799     25801     25800     25801     25802     25803
     25802     25804     25803     25804     25805     25806     25805     25807
     25806     25807     25808     25809     25808     25810     25809     25810
     25811     25812     25811     25813     25812     25813     25814     25815
     25814     25816     25815     25816     25817     25818     25817     25819
     25818     25819     25820     25821     25820     25822     25821     25822
     25823     25824     25823     25825     25824     25825     25826     25827
     25826     25828     25827     25828     25829     25830     25829     25831
     25830     25831     25832     25833     25832     25834     25833     25834
     25835     25836     25835     25837     25836     25837     25838     25839
     25838     25840     25839     25840     25841     25842     25841     25843
     25842     25843     25844     25845     25844     25846     25845     25846
     25847     25848     25847     25849     25848     25849     25850     25851
     25850     25852     25851     25852     25853     25854     25853     25855
     25854     25855     25856     25857     25856     25858     25857     25858
     25859     25860     25859     25861     25860     25861     25862     25863
     25862     25864     25863     25864     25865     25866     25865     25867
     25866     25867     25868     25869     25868     25870     25869     25870
     25871     25872     25871     25873     25872     25873     25874     25875
     25874     25876     25875     25876     25877     25878     25877     25879
     25878     25879     25880     25881     25880     25882     25881     25882
     25883     25884     25883     25885     25884     25885     25886     25887
     25886     25888     25887     25888     25889     25890     25889     25891
     25890     25891     25892     25893     25892     25894     25893     25894
     25895     25896     25895     25897     25896     25897     25898     25899
     25898     25900     25899     25900     25901     25902     25901     25903
     25902     25903     25904     25905     25904     25906     25905     25906
     25907     25908     25907     25909     25908     25909     25910     25911
     25910     25912     25911     25912     25913     25914     25913     25915
     25914     25915     25916     25917     25916     25918     25917     25918
     25919     25920     25919     25921     25920     25921     25922     25923
     25922     25924     25923     25924     25925     25926     25925     25927
     25926     25927     25928     25929     25928     25930     25929     25930
     25931     25932     25931     25933     25932     25933     25934     25935
     25934     25936     25935     25936     25937     25938     25937     25939
     25938     25939     25940     25941     25940     25942     25941     25942
     25943     25944     25943     25945     25944     25945     25946     25947
     25946     25948     25947     25948     25949     25950     25949     25951
     25950     25951     25952     25953     25952     25954     25953     25954
     25955     25956     25955     25957     25956     25957     25958     25959
     25958     25960     25959     25960     25961     25962     25961     25963
     25962     25963     25964     25965     25964     25966     25965     25966
     25967     25968     25967     25969     25968     25969     25970     25971
     25970     25972     25971     25972     25973     25974     25973     25975
     25974     25975     25976     25977     25976     25978     25977     25978
     25979     25980     25979     25981     25980     25981     25982     25983
     25982     25984     25983     25984     25985     25986     25985     25987
     25986     25987     25988     25989     25988     25990     25989     25990
     25991     25992     25991     25993     25992     25993     25994     25995
     25994     25996     25995     25996     25997     25998     25997     25999
     25998     25999     26000     26001     26000     26002     26001     26002
     26003     26004     26003     26005     26004     26005     26006     26007
     26006     26008     26007     26008     26009     26010     26009     26011
     26010     26011     26012     26013     26012     26014     26013     26014
     26015     26016     26015     26017     26016     26017     26018     26019
     26018     26020     26019     26020     26021     26022     26021     26023
     26022     26023     26024     26025     26024     26026     26025     26026
     26027     26028     26027     26029     26028     26029     26030     26031
     26030     26032     26031     26032     26033     26034     26033     26035
     26034     26035     26036     26037     26036     26038     26037     26038
     26039     26040     26039     26041     26040     26041     26042     26043
     26042     26044     26043     26044     26045     26046     26045     26047
     26046     26047     26048     26049     26048     26050     26049     26050
     26051     26052     26051     26053     26052     26053     26054     26055
     26054     26056     26055     26056     26057     26058     26057     26059
     26058     26059     26060     26061     26060     26062     26061     26062
     26063     26064     26063     26065     26064     26065     26066     26067
     26066     26068     26067     26068     26069     26070     26069     26071
     26070     26071     26072     26073     26072     26074     26073     26074
     26075     26076     26075     26077     26076     26077     26078     26079
     26078     26080     26079     26080     26081     26082     26081     26083
     26082     26083     26084     26085     26084     26086     26085     26086
     26087     26088     26087     26089     26088     26089     26090     26091
     26090     26092     26091     26092     26093     26094     26093     26095
     26094     26095     26096     26097     26096     26098     26097     26098
     26099     26100     26099     26101     26100     26101     26102     26103
     26102     26104     26103     26104     26105     26106     26105     26107
     26106     26107     26108     26109     26108     26110     26109     26110
     26111     26112     26111     26113     26112     26113     26114     26115
     26114     26116     26115     26116     26117     26118     26117     26119
     26118     26119     26120     26121     26120     26122     26121     26122
     26123     26124     26123     26125     26124     26125     26126     26127
     26126     26128     26127     26128     26129     26130     26129     26131
     26130     26131     26132     26133     26132     26134     26133     26134
     26135     26136     26135     26137     26136     26137     26138     26139
     26138     26140     26139     26140     26141     26142     26141     26143
     26142     26143     26144     26145     26144     26146     26145     26146
     26147     26148     26147     26149     26148     26149     26150     26151
     26150     26152     26151     26152     26153     26154     26153     26155
     26154     26155     26156     26157     26156     26158     26157     26158
     26159     26160     26159     26161     26160     26161     26162     26163
     26162     26164     26163     26164     26165     26166     26165     26167
     26166     26167     26168     26169     26168     26170     26169     26170
     26171     26172     26171     26173     26172     26173     26174     26175
     26174     26176     26175     26176     26177     26178     26177     26179
     26178     26179     26180     26181     26180     26182     26181     26182
     26183     26184     26183     26185     26184     26185     26186     26187
     26186     26188     26187     26188     26189     26190     26189     26191
     26190     26191     26192     26193     26192     26194     26193     26194
     26195     26196     26195     26197     26196     26197     26198     26199
     26198     26200     26199     26200     26201     26202     26201     26203
     26202     26203     26204     26205     26204     26206     26205     26206
     26207     26208     26207     26209     26208     26209     26210     26211
     26210     26212     26211     26212     26213     26214     26213     26215
     26214     26215     26216     26217     26216     26218     26217     26218
     26219     26220     26219     26221     26220     26221     26222     26223
     26222     26224     26223     26224     26225     26226     26225     26227
     26226     26227     26228     26229     26228     26230     26229     26230
     26231     26232     26231     26233     26232     26233     26234     26235
     26234     26236     26235     26236     26237     26238     26237     26239
     26238     26239     26240     26241     26240     26242     26241     26242
     26243     26244     26243     26245     26244     26245     26246     26247
     26246     26248     26247     26248     26249     26250     26249     26251
     26250     26251     26252     26253     26252     26254     26253     26254
     26255     26256     26255     26257     26256     26257     26258     26259
     26258     26260     26259     26260     26261     26262     26261     26263
     26262     26263     26264     26265     26264     26266     26265     26266
     26267     26268     26267     26269     26268     26269     26270     26271
     26270     26272     26271     26272     26273     26274     26273     26275
     26274     26275     26276     26277     26276     26278     26277     26278
     26279     26280     26279     26281     26280     26281     26282     26283
     26282     26284     26283     26284     26285     26286     26285     26287
     26286     26287     26288     26289     26288     26290     26289     26290
     26291     26292     26291     26293     26292     26293     26294     26295
     26294     26296     26295     26296     26297     26298     26297     26299
     26298     26299     26300     26301     26300     26302     26301     26302
     26303     26304     26303     26305     26304     26305     26306     26307
     26306     26308     26307     26308     26309     26310     26309     26311
     26310     26311     26312     26313     26312     26314     26313     26314
     26315     26316     26315     26317     26316     26317     26318     26319
     26318     26320     26319     26320     26321     26322     26321     26323
     26322     26323     26324     26325     26324     26326     26325     26326
     26327     26328     26327     26329     26328     26329     26330     26331
     26330     26332     26331     26332     26333     26334     26333     26335
     26334     26335     26336     26337     26336     26338     26337     26338
     26339     26340     26339     26341     26340     26341     26342     26343
     26342     26344     26343     26344     26345     26346     26345     26347
     26346     26347     26348     26349     26348     26350     26349     26350
     26351     26352     26351     26353     26352     26353     26354     26355
     26354     26356     26355     26356     26357     26358     26357     26359
     26358     26359     26360     26361     26360     26362     26361     26362
     26363     26364     26363     26365     26364     26365     26366     26367
     26366     26368     26367     26368     26369     26370     26369     26371
     26370     26371     26372     26373     26372     26374     26373     26374
     26375     26376     26375     26377     26376     26377     26378     26379
     26378     26380     26379     26380     26381     26382     26381     26383
     26382     26383     26384     26385     26384     26386     26385     26386
     26387     26388     26387     26389     26388     26389     26390     26391
     26390     26392     26391     26392     26393     26394     26393     26395
     26394     26395     26396     26397     26396     26398     26397     26398
     26399     26400     26399     26401     26400     26401     26402     26403
     26402     26404     26403     26404     26405     26406     26405     26407
     26406     26407     26408     26409     26408     26410     26409     26410
     26411     26412     26411     26413     26412     26413     26414     26415
     26414     26416     26415     26416     26417     26418     26417     26419
     26418     26419     26420     26421     26420     26422     26421     26422
     26423     26424     26423     26425     26424     26425     26426     26427
     26426     26428     26427     26428     26429     26430     26429     26431
     26430     26431     26432     26433     26432     26434     26433     26434
     26435     26436     26435     26437     26436     26437     26438     26439
     26438     26440     26439     26440     26441     26442     26441     26443
     26442     26443     26444     26445     26444     26446     26445     26446
     26447     26448     26447     26449     26448     26449     26450     26451
     26450     26452     26451     26452     26453     26454     26453     26455
     26454     26455     26456     26457     26456     26458     26457     26458
     26459     26460     26459     26461     26460     26461     26462     26463
     26462     26464     26463     26464     26465     26466     26465     26467
     26466     26467     26468     26469     26468     26470     26469     26470
     26471     26472     26471     26473     26472     26473     26474     26475
     26474     26476     26475     26476     26477     26478     26477     26479
     26478     26479     26480     26481     26480     26482     26481     26482
     26483     26484     26483     26485     26484     26485     26486     26487
     26486     26488     26487     26488     26489     26490     26489     26491
     26490     26491     26492     26493     26492     26494     26493     26494
     26495     26496     26495     26497     26496     26497     26498     26499
     26498     26500     26499     26500     26501     26502     26501     26503
     26502     26503     26504     26505     26504     26506     26505     26506
     26507     26508     26507     26509     26508     26509     26510     26511
     26510     26512     26511     26512     26513     26514     26513     26515
     26514     26515     26516     26517     26516     26518     26517     26518
     26519     26520     26519     26521     26520     26521     26522     26523
     26522     26524     26523     26524     26525     26526     26525     26527
     26526     26527     26528     26529     26528     26530     26529     26530
     26531     26532     26531     26533     26532     26533     26534     26535
     26534     26536     26535     26536     26537     26538     26537     26539
     26538     26539     26540     26541     26540     26542     26541     26542
     26543     26544     26543     26545     26544     26545     26546     26547
     26546     26548     26547     26548     26549     26550     26549     26551
     26550     26551     26552     26553     26552     26554     26553     26554
     26555     26556     26555     26557     26556     26557     26558     26559
     26558     26560     26559     26560     26561     26562     26561     26563
     26562     26563     26564     26565     26564     26566     26565     26566
     26567     26568     26567     26569     26568     26569     26570     26571
     26570     26572     26571     26572     26573     26574     26573     26575
     26574     26575     26576     26577     26576     26578     26577     26578
     26579     26580     26579     26581     26580     26581     26582     26583
     26582     26584     26583     26584     26585     26586     26585     26587
     26586     26587     26588     26589     26588     26590     26589     26590
     26591     26592     26591     26593     26592     26593     26594     26595
     26594     26596     26595     26596     26597     26598     26597     26599
     26598     26599     26600     26601     26600     26602     26601     26602
     26603     26604     26603     26605     26604     26605     26606     26607
     26606     26608     26607     26608     26609     26610     26609     26611
     26610     26611     26612     26613     26612     26614     26613     26614
     26615     26616     26615     26617     26616     26617     26618     26619
     26618     26620     26619     26620     26621     26622     26621     26623
     26622     26623     26624     26625     26624     26626     26625     26626
     26627     26628     26627     26629     26628     26629     26630     26631
     26630     26632     26631     26632     26633     26634     26633     26635
     26634     26635     26636     26637     26636     26638     26637     26638
     26639     26640     26639     26641     26640     26641     26642     26643
     26642     26644     26643     26644     26645     26646     26645     26647
     26646     26647     26648     26649     26648     26650     26649     26650
     26651     26652     26651     26653     26652     26653     26654     26655
     26654     26656     26655     26656     26657     26658     26657     26659
     26658     26659     26660     26661     26660     26662     26661     26662
     26663     26664     26663     26665     26664     26665     26666     26667
     26666     26668     26667     26668     26669     26670     26669     26671
     26670     26671     26672     26673     26672     26674     26673     26674
     26675     26676     26675     26677     26676     26677     26678     26679
     26678     26680     26679     26680     26681     26682     26681     26683
     26682     26683     26684     26685     26684     26686     26685     26686
     26687     26688     26687     26689     26688     26689     26690     26691
     26690     26692     26691     26692     26693     26694     26693     26695
     26694     26695     26696     26697     26696     26698     26697     26698
     26699     26700     26699     26701     26700     26701     26702     26703
     26702     26704     26703     26704     26705     26706     26705     26707
     26706     26707     26708     26709     26708     26710     26709     26710
     26711     26712     26711     26713     26712     26713     26714     26715
     26714     26716     26715     26716     26717     26718     26717     26719
     26718     26719     26720     26721     26720     26722     26721     26722
     26723     26724     26723     26725     26724     26725     26726     26727
     26726     26728     26727     26728     26729     26730     26729     26731
     26730     26731     26732     26733     26732     26734     26733     26734
     26735     26736     26735     26737     26736     26737     26738     26739
     26738     26740     26739     26740     26741     26742     26741     26743
     26742     26743     26744     26745     26744     26746     26745     26746
     26747     26748     26747     26749     26748     26749     26750     26751
     26750     26752     26751     26752     26753     26754     26753     26755
     26754     26755     26756     26757     26756     26758     26757     26758
     26759     26760     26759     26761     26760     26761     26762     26763
     26762     26764     26763     26764     26765     26766     26765     26767
     26766     26767     26768     26769     26768     26770     26769     26770
     26771     26772     26771     26773     26772     26773     26774     26775
     26774     26776     26775     26776     26777     26778     26777     26779
     26778     26779     26780     26781     26780     26782     26781     26782
     26783     26784     26783     26785     26784     26785     26786     26787
     26786     26788     26787     26788     26789     26790     26789     26791
     26790     26791     26792     26793     26792     26794     26793     26794
     26795     26796     26795     26797     26796     26797     26798     26799
     26798     26800     26799     26800     26801     26802     26801     26803
     26802     26803     26804     26805     26804     26806     26805     26806
     26807     26808     26807     26809     26808     26809     26810     26811
     26810     26812     26811     26812     26813     26814     26813     26815
     26814     26815     26816     26817     26816     26818     26817     26818
     26819     26820     26819     26821     26820     26821     26822     26823
     26822     26824     26823     26824     26825     26826     26825     26827
     26826     26827     26828     26829     26828     26830     26829     26830
     26831     26832     26831     26833     26832     26833     26834     26835
     26834     26836     26835     26836     26837     26838     26837     26839
     26838     26839     26840     26841     26840     26842     26841     26842
     26843     26844     26843     26845     26844     26845     26846     26847
     26846     26848     26847     26848     26849     26850     26849     26851
     26850     26851     26852     26853     26852     26854     26853     26854
     26855     26856     26855     26857     26856     26857     26858     26859
     26858     26860     26859     26860     26861     26862     26861     26863
     26862     26863     26864     26865     26864     26866     26865     26866
     26867     26868     26867     26869     26868     26869     26870     26871
     26870     26872     26871     26872     26873     26874     26873     26875
     26874     26875     26876     26877     26876     26878     26877     26878
     26879     26880     26879     26881     26880     26881     26882     26883
     26882     26884     26883     26884     26885     26886     26885     26887
     26886     26887     26888     26889     26888     26890     26889     26890
     26891     26892     26891     26893     26892     26893     26894     26895
     26894     26896     26895     26896     26897     26898     26897     26899
     26898     26899     26900     26901     26900     26902     26901     26902
     26903     26904     26903     26905     26904     26905     26906     26907
     26906     26908     26907     26908     26909     26910     26909     26911
     26910     26911     26912     26913     26912     26914     26913     26914
     26915     26916     26915     26917     26916     26917     26918     26919
     26918     26920     26919     26920     26921     26922     26921     26923
     26922     26923     26924     26925     26924     26926     26925     26926
     26927     26928     26927     26929     26928     26929     26930     26931
     26930     26932     26931     26932     26933     26934     26933     26935
     26934     26935     26936     26937     26936     26938     26937     26938
     26939     26940     26939     26941     26940     26941     26942     26943
     26942     26944     26943     26944     26945     26946     26945     26947
     26946     26947     26948     26949     26948     26950     26949     26950
     26951     26952     26951     26953     26952     26953     26954     26955
     26954     26956     26955     26956     26957     26958     26957     26959
     26958     26959     26960     26961     26960     26962     26961     26962
     26963     26964     26963     26965     26964     26965     26966     26967
     26966     26968     26967     26968     26969     26970     26969     26971
     26970     26971     26972     26973     26972     26974     26973     26974
     26975     26976     26975     26977     26976     26977     26978     26979
     26978     26980     26979     26980     26981     26982     26981     26983
     26982     26983     26984     26985     26984     26986     26985     26986
     26987     26988     26987     26989     26988     26989     26990     26991
     26990     26992     26991     26992     26993     26994     26993     26995
     26994     26995     26996     26997     26996     26998     26997     26998
     26999     27000     26999     27001     27000     27001     27002     27003
     27002     27004     27003     27004     27005     27006     27005     27007
     27006     27007     27008     27009     27008     27010     27009     27010
     27011     27012     27011     27013     27012     27013     27014     27015
     27014     27016     27015     27016     27017     27018     27017     27019
     27018     27019     27020     27021     27020     27022     27021     27022
     27023     27024     27023     27025     27024     27025     27026     27027
     27026     27028     27027     27028     27029     27030     27029     27031
     27030     27031     27032     27033     27032     27034     27033     27034
     27035     27036     27035     27037     27036     27037     27038     27039
     27038     27040     27039     27040     27041     27042     27041     27043
     27042     27043     27044     27045     27044     27046     27045     27046
     27047     27048     27047     27049     27048     27049     27050     27051
     27050     27052     27051     27052     27053     27054     27053     27055
     27054     27055     27056     27057     27056     27058     27057     27058
     27059     27060     27059     27061     27060     27061     27062     27063
     27062     27064     27063     27064     27065     27066     27065     27067
     27066     27067     27068     27069     27068     27070     27069     27070
     27071     27072     27071     27073     27072     27073     27074     27075
     27074     27076     27075     27076     27077     27078     27077     27079
     27078     27079     27080     27081     27080     27082     27081     27082
     27083     27084     27083     27085     27084     27085     27086     27087
     27086     27088     27087     27088     27089     27090     27089     27091
     27090     27091     27092     27093     27092     27094     27093     27094
     27095     27096     27095     27097     27096     27097     27098     27099
     27098     27100     27099     27100     27101     27102     27101     27103
     27102     27103     27104     27105     27104     27106     27105     27106
     27107     27108     27107     27109     27108     27109     27110     27111
     27110     27112     27111     27112     27113     27114     27113     27115
     27114     27115     27116     27117     27116     27118     27117     27118
     27119     27120     27119     27121     27120     27121     27122     27123
     27122     27124     27123     27124     27125     27126     27125     27127
     27126     27127     27128     27129     27128     27130     27129     27130
     27131     27132     27131     27133     27132     27133     27134     27135
     27134     27136     27135     27136     27137     27138     27137     27139
     27138     27139     27140     27141     27140     27142     27141     27142
     27143     27144     27143     27145     27144     27145     27146     27147
     27146     27148     27147     27148     27149     27150     27149     27151
     27150     27151     27152     27153     27152     27154     27153     27154
     27155     27156     27155     27157     27156     27157     27158     27159
     27158     27160     27159     27160     27161     27162     27161     27163
     27162     27163     27164     27165     27164     27166     27165     27166
     27167     27168     27167     27169     27168     27169     27170     27171
     27170     27172     27171     27172     27173     27174     27173     27175
     27174     27175     27176     27177     27176     27178     27177     27178
     27179     27180     27179     27181     27180     27181     27182     27183
     27182     27184     27183     27184     27185     27186     27185     27187
     27186     27187     27188     27189     27188     27190     27189     27190
     27191     27192     27191     27193     27192     27193     27194     27195
     27194     27196     27195     27196     27197     27198     27197     27199
     27198     27199     27200     27201     27200     27202     27201     27202
     27203     27204     27203     27205     27204     27205     27206     27207
     27206     27208     27207     27208     27209     27210     27209     27211
     27210     27211     27212     27213     27212     27214     27213     27214
     27215     27216     27215     27217     27216     27217     27218     27219
     27218     27220     27219     27220     27221     27222     27221     27223
     27222     27223     27224     27225     27224     27226     27225     27226
     27227     27228     27227     27229     27228     27229     27230     27231
     27230     27232     27231     27232     27233     27234     27233     27235
     27234     27235     27236     27237     27236     27238     27237     27238
     27239     27240     27239     27241     27240     27241     27242     27243
     27242     27244     27243     27244     27245     27246     27245     27247
     27246     27247     27248     27249     27248     27250     27249     27250
     27251     27252     27251     27253     27252     27253     27254     27255
     27254     27256     27255     27256     27257     27258     27257     27259
     27258     27259     27260     27261     27260     27262     27261     27262
     27263     27264     27263     27265     27264     27265     27266     27267
     27266     27268     27267     27268     27269     27270     27269     27271
     27270     27271     27272     27273     27272     27274     27273     27274
     27275     27276     27275     27277     27276     27277     27278     27279
     27278     27280     27279     27280     27281     27282     27281     27283
     27282     27283     27284     27285     27284     27286     27285     27286
     27287     27288     27287     27289     27288     27289     27290     27291
     27290     27292     27291     27292     27293     27294     27293     27295
     27294     27295     27296     27297     27296     27298     27297     27298
     27299     27300     27299     27301     27300     27301     27302     27303
     27302     27304     27303     27304     27305     27306     27305     27307
     27306     27307     27308     27309     27308     27310     27309     27310
     27311     27312     27311     27313     27312     27313     27314     27315
     27314     27316     27315     27316     27317     27318     27317     27319
     27318     27319     27320     27321     27320     27322     27321     27322
     27323     27324     27323     27325     27324     27325     27326     27327
     27326     27328     27327     27328     27329     27330     27329     27331
     27330     27331     27332     27333     27332     27334     27333     27334
     27335     27336     27335     27337     27336     27337     27338     27339
     27338     27340     27339     27340     27341     27342     27341     27343
     27342     27343     27344     27345     27344     27346     27345     27346
     27347     27348     27347     27349     27348     27349     27350     27351
     27350     27352     27351     27352     27353     27354     27353     27355
     27354     27355     27356     27357     27356     27358     27357     27358
     27359     27360     27359     27361     27360     27361     27362     27363
     27362     27364     27363     27364     27365     27366     27365     27367
     27366     27367     27368     27369     27368     27370     27369     27370
     27371     27372     27371     27373     27372     27373     27374     27375
     27374     27376     27375     27376     27377     27378     27377     27379
     27378     27379     27380     27381     27380     27382     27381     27382
     27383     27384     27383     27385     27384     27385     27386     27387
     27386     27388     27387     27388     27389     27390     27389     27391
     27390     27391     27392     27393     27392     27394     27393     27394
     27395     27396     27395     27397     27396     27397     27398     27399
     27398     27400     27399     27400     27401     27402     27401     27403
     27402     27403     27404     27405     27404     27406     27405     27406
     27407     27408     27407     27409     27408     27409     27410     27411
     27410     27412     27411     27412     27413     27414     27413     27415
     27414     27415     27416     27417     27416     27418     27417     27418
     27419     27420     27419     27421     27420     27421     27422     27423
     27422     27424     27423     27424     27425     27426     27425     27427
     27426     27427     27428     27429     27428     27430     27429     27430
     27431     27432     27431     27433     27432     27433     27434     27435
     27434     27436     27435     27436     27437     27438     27437     27439
     27438     27439     27440     27441     27440     27442     27441     27442
     27443     27444     27443     27445     27444     27445     27446     27447
     27446     27448     27447     27448     27449     27450     27449     27451
     27450     27451     27452     27453     27452     27454     27453     27454
     27455     27456     27455     27457     27456     27457     27458     27459
     27458     27460     27459     27460     27461     27462     27461     27463
     27462     27463     27464     27465     27464     27466     27465     27466
     27467     27468     27467     27469     27468     27469     27470     27471
     27470     27472     27471     27472     27473     27474     27473     27475
     27474     27475     27476     27477     27476     27478     27477     27478
     27479     27480     27479     27481     27480     27481     27482     27483
     27482     27484     27483     27484     27485     27486     27485     27487
     27486     27487     27488     27489     27488     27490     27489     27490
     27491     27492     27491     27493     27492     27493     27494     27495
     27494     27496     27495     27496     27497     27498     27497     27499
     27498     27499     27500     27501     27500     27502     27501     27502
     27503     27504     27503     27505     27504     27505     27506     27507
     27506     27508     27507     27508     27509     27510     27509     27511
     27510     27511     27512     27513     27512     27514     27513     27514
     27515     27516     27515     27517     27516     27517     27518     27519
     27518     27520     27519     27520     27521     27522     27521     27523
     27522     27523     27524     27525     27524     27526     27525     27526
     27527     27528     27527     27529     27528     27529     27530     27531
     27530     27532     27531     27532     27533     27534     27533     27535
     27534     27535     27536     27537     27536     27538     27537     27538
     27539     27540     27539     27541     27540     27541     27542     27543
     27542     27544     27543     27544     27545     27546     27545     27547
     27546     27547     27548     27549     27548     27550     27549     27550
     27551     27552     27551     27553     27552     27553     27554     27555
     27554     27556     27555     27556     27557     27558     27557     27559
     27558     27559     27560     27561     27560     27562     27561     27562
     27563     27564     27563     27565     27564     27565     27566     27567
     27566     27568     27567     27568     27569     27570     27569     27571
     27570     27571     27572     27573     27572     27574     27573     27574
     27575     27576     27575     27577     27576     27577     27578     27579
     27578     27580     27579     27580     27581     27582     27581     27583
     27582     27583     27584     27585     27584     27586     27585     27586
     27587     27588     27587     27589     27588     27589     27590     27591
     27590     27592     27591     27592     27593     27594     27593     27595
     27594     27595     27596     27597     27596     27598     27597     27598
     27599     27600     27599     27601     27600     27601     27602     27603
     27602     27604     27603     27604     27605     27606     27605     27607
     27606     27607     27608     27609     27608     27610     27609     27610
     27611     27612     27611     27613     27612     27613     27614     27615
     27614     27616     27615     27616     27617     27618     27617     27619
     27618     27619     27620     27621     27620     27622     27621     27622
     27623     27624     27623     27625     27624     27625     27626     27627
     27626     27628     27627     27628     27629     27630     27629     27631
     27630     27631     27632     27633     27632     27634     27633     27634
     27635     27636     27635     27637     27636     27637     27638     27639
     27638     27640     27639     27640     27641     27642     27641     27643
     27642     27643     27644     27645     27644     27646     27645     27646
     27647     27648     27647     27649     27648     27649     27650     27651
     27650     27652     27651     27652     27653     27654     27653     27655
     27654     27655     27656     27657     27656     27658     27657     27658
     27659     27660     27659     27661     27660     27661     27662     27663
     27662     27664     27663     27664     27665     27666     27665     27667
     27666     27667     27668     27669     27668     27670     27669     27670
     27671     27672     27671     27673     27672     27673     27674     27675
     27674     27676     27675     27676     27677     27678     27677     27679
     27678     27679     27680     27681     27680     27682     27681     27682
     27683     27684     27683     27685     27684     27685     27686     27687
     27686     27688     27687     27688     27689     27690     27689     27691
     27690     27691     27692     27693     27692     27694     27693     27694
     27695     27696     27695     27697     27696     27697     27698     27699
     27698     27700     27699     27700     27701     27702     27701     27703
     27702     27703     27704     27705     27704     27706     27705     27706
     27707     27708     27707     27709     27708     27709     27710     27711
     27710     27712     27711     27712     27713     27714     27713     27715
     27714     27715     27716     27717     27716     27718     27717     27718
     27719     27720     27719     27721     27720     27721     27722     27723
     27722     27724     27723     27724     27725     27726     27725     27727
     27726     27727     27728     27729     27728     27730     27729     27730
     27731     27732     27731     27733     27732     27733     27734     27735
     27734     27736     27735     27736     27737     27738     27737     27739
     27738     27739     27740     27741     27740     27742     27741     27742
     27743     27744     27743     27745     27744     27745     27746     27747
     27746     27748     27747     27748     27749     27750     27749     27751
     27750     27751     27752     27753     27752     27754     27753     27754
     27755     27756     27755     27757     27756     27757     27758     27759
     27758     27760     27759     27760     27761     27762     27761     27763
     27762     27763     27764     27765     27764     27766     27765     27766
     27767     27768     27767     27769     27768     27769     27770     27771
     27770     27772     27771     27772     27773     27774     27773     27775
     27774     27775     27776     27777     27776     27778     27777     27778
     27779     27780     27779     27781     27780     27781     27782     27783
     27782     27784     27783     27784     27785     27786     27785     27787
     27786     27787     27788     27789     27788     27790     27789     27790
     27791     27792     27791     27793     27792     27793     27794     27795
     27794     27796     27795     27796     27797     27798     27797     27799
     27798     27799     27800     27801     27800     27802     27801     27802
     27803     27804     27803     27805     27804     27805     27806     27807
     27806     27808     27807     27808     27809     27810     27809     27811
     27810     27811     27812     27813     27812     27814     27813     27814
     27815     27816     27815     27817     27816     27817     27818     27819
     27818     27820     27819     27820     27821     27822     27821     27823
     27822     27823     27824     27825     27824     27826     27825     27826
     27827     27828     27827     27829     27828     27829     27830     27831
     27830     27832     27831     27832     27833     27834     27833     27835
     27834     27835     27836     27837     27836     27838     27837     27838
     27839     27840     27839     27841     27840     27841     27842     27843
     27842     27844     27843     27844     27845     27846     27845     27847
     27846     27847     27848     27849     27848     27850     27849     27850
     27851     27852     27851     27853     27852     27853     27854     27855
     27854     27856     27855     27856     27857     27858     27857     27859
     27858     27859     27860     27861     27860     27862     27861     27862
     27863     27864     27863     27865     27864     27865     27866     27867
     27866     27868     27867     27868     27869     27870     27869     27871
     27870     27871     27872     27873     27872     27874     27873     27874
     27875     27876     27875     27877     27876     27877     27878     27879
     27878     27880     27879     27880     27881     27882     27881     27883
     27882     27883     27884     27885     27884     27886     27885     27886
     27887     27888     27887     27889     27888     27889     27890     27891
     27890     27892     27891     27892     27893     27894     27893     27895
     27894     27895     27896     27897     27896     27898     27897     27898
     27899     27900     27899     27901     27900     27901     27902     27903
     27902     27904     27903     27904     27905     27906     27905     27907
     27906     27907     27908     27909     27908     27910     27909     27910
     27911     27912     27911     27913     27912     27913     27914     27915
     27914     27916     27915     27916     27917     27918     27917     27919
     27918     27919     27920     27921     27920     27922     27921     27922
     27923     27924     27923     27925     27924     27925     27926     27927
     27926     27928     27927     27928     27929     27930     27929     27931
     27930     27931     27932     27933     27932     27934     27933     27934
     27935     27936     27935     27937     27936     27937     27938     27939
     27938     27940     27939     27940     27941     27942     27941     27943
     27942     27943     27944     27945     27944     27946     27945     27946
     27947     27948     27947     27949     27948     27949     27950     27951
     27950     27952     27951     27952     27953     27954     27953     27955
     27954     27955     27956     27957     27956     27958     27957     27958
     27959     27960     27959     27961     27960     27961     27962     27963
     27962     27964     27963     27964     27965     27966     27965     27967
     27966     27967     27968     27969     27968     27970     27969     27970
     27971     27972     27971     27973     27972     27973     27974     27975
     27974     27976     27975     27976     27977     27978     27977     27979
     27978     27979     27980     27981     27980     27982     27981     27982
     27983     27984     27983     27985     27984     27985     27986     27987
     27986     27988     27987     27988     27989     27990     27989     27991
     27990     27991     27992     27993     27992     27994     27993     27994
     27995     27996     27995     27997     27996     27997     27998     27999
     27998     28000     27999     28000     28001     28002     28001     28003
     28002     28003     28004     28005     28004     28006     28005     28006
     28007     28008     28007     28009     28008     28009     28010     28011
     28010     28012     28011     28012     28013     28014     28013     28015
     28014     28015     28016     28017     28016     28018     28017     28018
     28019     28020     28019     28021     28020     28021     28022     28023
     28022     28024     28023     28024     28025     28026     28025     28027
     28026     28027     28028     28029     28028     28030     28029     28030
     28031     28032     28031     28033     28032     28033     28034     28035
     28034     28036     28035     28036     28037     28038     28037     28039
     28038     28039     28040     28041     28040     28042     28041     28042
     28043     28044     28043     28045     28044     28045     28046     28047
     28046     28048     28047     28048     28049     28050     28049     28051
     28050     28051     28052     28053     28052     28054     28053     28054
     28055     28056     28055     28057     28056     28057     28058     28059
     28058     28060     28059     28060     28061     28062     28061     28063
     28062     28063     28064     28065     28064     28066     28065     28066
     28067     28068     28067     28069     28068     28069     28070     28071
     28070     28072     28071     28072     28073     28074     28073     28075
     28074     28075     28076     28077     28076     28078     28077     28078
     28079     28080     28079     28081     28080     28081     28082     28083
     28082     28084     28083     28084     28085     28086     28085     28087
     28086     28087     28088     28089     28088     28090     28089     28090
     28091     28092     28091     28093     28092     28093     28094     28095
     28094     28096     28095     28096     28097     28098     28097     28099
     28098     28099     28100     28101     28100     28102     28101     28102
     28103     28104     28103     28105     28104     28105     28106     28107
     28106     28108     28107     28108     28109     28110     28109     28111
     28110     28111     28112     28113     28112     28114     28113     28114
     28115     28116     28115     28117     28116     28117     28118     28119
     28118     28120     28119     28120     28121     28122     28121     28123
     28122     28123     28124     28125     28124     28126     28125     28126
     28127     28128     28127     28129     28128     28129     28130     28131
     28130     28132     28131     28132     28133     28134     28133     28135
     28134     28135     28136     28137     28136     28138     28137     28138
     28139     28140     28139     28141     28140     28141     28142     28143
     28142     28144     28143     28144     28145     28146     28145     28147
     28146     28147     28148     28149     28148     28150     28149     28150
     28151     28152     28151     28153     28152     28153     28154     28155
     28154     28156     28155     28156     28157     28158     28157     28159
     28158     28159     28160     28161     28160     28162     28161     28162
     28163     28164     28163     28165     28164     28165     28166     28167
     28166     28168     28167     28168     28169     28170     28169     28171
     28170     28171     28172     28173     28172     28174     28173     28174
     28175     28176     28175     28177     28176     28177     28178     28179
     28178     28180     28179     28180     28181     28182     28181     28183
     28182     28183     28184     28185     28184     28186     28185     28186
     28187     28188     28187     28189     28188     28189     28190     28191
     28190     28192     28191     28192     28193     28194     28193     28195
     28194     28195     28196     28197     28196     28198     28197     28198
     28199     28200     28199     28201     28200     28201     28202     28203
     28202     28204     28203     28204     28205     28206     28205     28207
     28206     28207     28208     28209     28208     28210     28209     28210
     28211     28212     28211     28213     28212     28213     28214     28215
     28214     28216     28215     28216     28217     28218     28217     28219
     28218     28219     28220     28221     28220     28222     28221     28222
     28223     28224     28223     28225     28224     28225     28226     28227
     28226     28228     28227     28228     28229     28230     28229     28231
     28230     28231     28232     28233     28232     28234     28233     28234
     28235     28236     28235     28237     28236     28237     28238     28239
     28238     28240     28239     28240     28241     28242     28241     28243
     28242     28243     28244     28245     28244     28246     28245     28246
     28247     28248     28247     28249     28248     28249     28250     28251
     28250     28252     28251     28252     28253     28254     28253     28255
     28254     28255     28256     28257     28256     28258     28257     28258
     28259     28260     28259     28261     28260     28261     28262     28263
     28262     28264     28263     28264     28265     28266     28265     28267
     28266     28267     28268     28269     28268     28270     28269     28270
     28271     28272     28271     28273     28272     28273     28274     28275
     28274     28276     28275     28276     28277     28278     28277     28279
     28278     28279     28280     28281     28280     28282     28281     28282
     28283     28284     28283     28285     28284     28285     28286     28287
     28286     28288     28287     28288     28289     28290     28289     28291
     28290     28291     28292     28293     28292     28294     28293     28294
     28295     28296     28295     28297     28296     28297     28298     28299
     28298     28300     28299     28300     28301     28302     28301     28303
     28302     28303     28304     28305     28304     28306     28305     28306
     28307     28308     28307     28309     28308     28309     28310     28311
     28310     28312     28311     28312     28313     28314     28313     28315
     28314     28315     28316     28317     28316     28318     28317     28318
     28319     28320     28319     28321     28320     28321     28322     28323
     28322     28324     28323     28324     28325     28326     28325     28327
     28326     28327     28328     28329     28328     28330     28329     28330
     28331     28332     28331     28333     28332     28333     28334     28335
     28334     28336     28335     28336     28337     28338     28337     28339
     28338     28339     28340     28341     28340     28342     28341     28342
     28343     28344     28343     28345     28344     28345     28346     28347
     28346     28348     28347     28348     28349     28350     28349     28351
     28350     28351     28352     28353     28352     28354     28353     28354
     28355     28356     28355     28357     28356     28357     28358     28359
     28358     28360     28359     28360     28361     28362     28361     28363
     28362     28363     28364     28365     28364     28366     28365     28366
     28367     28368     28367     28369     28368     28369     28370     28371
     28370     28372     28371     28372     28373     28374     28373     28375
     28374     28375     28376     28377     28376     28378     28377     28378
     28379     28380     28379     28381     28380     28381     28382     28383
     28382     28384     28383     28384     28385     28386     28385     28387
     28386     28387     28388     28389     28388     28390     28389     28390
     28391     28392     28391     28393     28392     28393     28394     28395
     28394     28396     28395     28396     28397     28398     28397     28399
     28398     28399     28400     28401     28400     28402     28401     28402
     28403     28404     28403     28405     28404     28405     28406     28407
     28406     28408     28407     28408     28409     28410     28409     28411
     28410     28411     28412     28413     28412     28414     28413     28414
     28415     28416     28415     28417     28416     28417     28418     28419
     28418     28420     28419     28420     28421     28422     28421     28423
     28422     28423     28424     28425     28424     28426     28425     28426
     28427     28428     28427     28429     28428     28429     28430     28431
     28430     28432     28431     28432     28433     28434     28433     28435
     28434     28435     28436     28437     28436     28438     28437     28438
     28439     28440     28439     28441     28440     28441     28442     28443
     28442     28444     28443     28444     28445     28446     28445     28447
     28446     28447     28448     28449     28448     28450     28449     28450
     28451     28452     28451     28453     28452     28453     28454     28455
     28454     28456     28455     28456     28457     28458     28457     28459
     28458     28459     28460     28461     28460     28462     28461     28462
     28463     28464     28463     28465     28464     28465     28466     28467
     28466     28468     28467     28468     28469     28470     28469     28471
     28470     28471     28472     28473     28472     28474     28473     28474
     28475     28476     28475     28477     28476     28477     28478     28479
     28478     28480     28479     28480     28481     28482     28481     28483
     28482     28483     28484     28485     28484     28486     28485     28486
     28487     28488     28487     28489     28488     28489     28490     28491
     28490     28492     28491     28492     28493     28494     28493     28495
     28494     28495     28496     28497     28496     28498     28497     28498
     28499     28500     28499     28501     28500     28501     28502     28503
     28502     28504     28503     28504     28505     28506     28505     28507
     28506     28507     28508     28509     28508     28510     28509     28510
     28511     28512     28511     28513     28512     28513     28514     28515
     28514     28516     28515     28516     28517     28518     28517     28519
     28518     28519     28520     28521     28520     28522     28521     28522
     28523     28524     28523     28525     28524     28525     28526     28527
     28526     28528     28527     28528     28529     28530     28529     28531
     28530     28531     28532     28533     28532     28534     28533     28534
     28535     28536     28535     28537     28536     28537     28538     28539
     28538     28540     28539     28540     28541     28542     28541     28543
     28542     28543     28544     28545     28544     28546     28545     28546
     28547     28548     28547     28549     28548     28549     28550     28551
     28550     28552     28551     28552     28553     28554     28553     28555
     28554     28555     28556     28557     28556     28558     28557     28558
     28559     28560     28559     28561     28560     28561     28562     28563
     28562     28564     28563     28564     28565     28566     28565     28567
     28566     28567     28568     28569     28568     28570     28569     28570
     28571     28572     28571     28573     28572     28573     28574     28575
     28574     28576     28575     28576     28577     28578     28577     28579
     28578     28579     28580     28581     28580     28582     28581     28582
     28583     28584     28583     28585     28584     28585     28586     28587
     28586     28588     28587     28588     28589     28590     28589     28591
     28590     28591     28592     28593     28592     28594     28593     28594
     28595     28596     28595     28597     28596     28597     28598     28599
     28598     28600     28599     28600     28601     28602     28601     28603
     28602     28603     28604     28605     28604     28606     28605     28606
     28607     28608     28607     28609     28608     28609     28610     28611
     28610     28612     28611     28612     28613     28614     28613     28615
     28614     28615     28616     28617     28616     28618     28617     28618
     28619     28620     28619     28621     28620     28621     28622     28623
     28622     28624     28623     28624     28625     28626     28625     28627
     28626     28627     28628     28629     28628     28630     28629     28630
     28631     28632     28631     28633     28632     28633     28634     28635
     28634     28636     28635     28636     28637     28638     28637     28639
     28638     28639     28640     28641     28640     28642     28641     28642
     28643     28644     28643     28645     28644     28645     28646     28647
     28646     28648     28647     28648     28649     28650     28649     28651
     28650     28651     28652     28653     28652     28654     28653     28654
     28655     28656     28655     28657     28656     28657     28658     28659
     28658     28660     28659     28660     28661     28662     28661     28663
     28662     28663     28664     28665     28664     28666     28665     28666
     28667     28668     28667     28669     28668     28669     28670     28671
     28670     28672     28671     28672     28673     28674     28673     28675
     28674     28675     28676     28677     28676     28678     28677     28678
     28679     28680     28679     28681     28680     28681     28682     28683
     28682     28684     28683     28684     28685     28686     28685     28687
     28686     28687     28688     28689     28688     28690     28689     28690
     28691     28692     28691     28693     28692     28693     28694     28695
     28694     28696     28695     28696     28697     28698     28697     28699
     28698     28699     28700     28701     28700     28702     28701     28702
     28703     28704     28703     28705     28704     28705     28706     28707
     28706     28708     28707     28708     28709     28710     28709     28711
     28710     28711     28712     28713     28712     28714     28713     28714
     28715     28716     28715     28717     28716     28717     28718     28719
     28718     28720     28719     28720     28721     28722     28721     28723
     28722     28723     28724     28725     28724     28726     28725     28726
     28727     28728     28727     28729     28728     28729     28730     28731
     28730     28732     28731     28732     28733     28734     28733     28735
     28734     28735     28736     28737     28736     28738     28737     28738
     28739     28740     28739     28741     28740     28741     28742     28743
     28742     28744     28743     28744     28745     28746     28745     28747
     28746     28747     28748     28749     28748     28750     28749     28750
     28751     28752     28751     28753     28752     28753     28754     28755
     28754     28756     28755     28756     28757     28758     28757     28759
     28758     28759     28760     28761     28760     28762     28761     28762
     28763     28764     28763     28765     28764     28765     28766     28767
     28766     28768     28767     28768     28769     28770     28769     28771
     28770     28771     28772     28773     28772     28774     28773     28774
     28775     28776     28775     28777     28776     28777     28778     28779
     28778     28780     28779     28780     28781     28782     28781     28783
     28782     28783     28784     28785     28784     28786     28785     28786
     28787     28788     28787     28789     28788     28789     28790     28791
     28790     28792     28791     28792     28793     28794     28793     28795
     28794     28795     28796     28797     28796     28798     28797     28798
     28799     28800     28799     28801     28800     28801     28802     28803
     28802     28804     28803     28804     28805     28806     28805     28807
     28806     28807     28808     28809     28808     28810     28809     28810
     28811     28812     28811     28813     28812     28813     28814     28815
     28814     28816     28815     28816     28817     28818     28817     28819
     28818     28819     28820     28821     28820     28822     28821     28822
     28823     28824     28823     28825     28824     28825     28826     28827
     28826     28828     28827     28828     28829     28830     28829     28831
     28830     28831     28832     28833     28832     28834     28833     28834
     28835     28836     28835     28837     28836     28837     28838     28839
     28838     28840     28839     28840     28841     28842     28841     28843
     28842     28843     28844     28845     28844     28846     28845     28846
     28847     28848     28847     28849     28848     28849     28850     28851
     28850     28852     28851     28852     28853     28854     28853     28855
     28854     28855     28856     28857     28856     28858     28857     28858
     28859     28860     28859     28861     28860     28861     28862     28863
     28862     28864     28863     28864     28865     28866     28865     28867
     28866     28867     28868     28869     28868     28870     28869     28870
     28871     28872     28871     28873     28872     28873     28874     28875
     28874     28876     28875     28876     28877     28878     28877     28879
     28878     28879     28880     28881     28880     28882     28881     28882
     28883     28884     28883     28885     28884     28885     28886     28887
     28886     28888     28887     28888     28889     28890     28889     28891
     28890     28891     28892     28893     28892     28894     28893     28894
     28895     28896     28895     28897     28896     28897     28898     28899
     28898     28900     28899     28900     28901     28902     28901     28903
     28902     28903     28904     28905     28904     28906     28905     28906
     28907     28908     28907     28909     28908     28909     28910     28911
     28910     28912     28911     28912     28913     28914     28913     28915
     28914     28915     28916     28917     28916     28918     28917     28918
     28919     28920     28919     28921     28920     28921     28922     28923
     28922     28924     28923     28924     28925     28926     28925     28927
     28926     28927     28928     28929     28928     28930     28929     28930
     28931     28932     28931     28933     28932     28933     28934     28935
     28934     28936     28935     28936     28937     28938     28937     28939
     28938     28939     28940     28941     28940     28942     28941     28942
     28943     28944     28943     28945     28944     28945     28946     28947
     28946     28948     28947     28948     28949     28950     28949     28951
     28950     28951     28952     28953     28952     28954     28953     28954
     28955     28956     28955     28957     28956     28957     28958     28959
     28958     28960     28959     28960     28961     28962     28961     28963
     28962     28963     28964     28965     28964     28966     28965     28966
     28967     28968     28967     28969     28968     28969     28970     28971
     28970     28972     28971     28972     28973     28974     28973     28975
     28974     28975     28976     28977     28976     28978     28977     28978
     28979     28980     28979     28981     28980     28981     28982     28983
     28982     28984     28983     28984     28985     28986     28985     28987
     28986     28987     28988     28989     28988     28990     28989     28990
     28991     28992     28991     28993     28992     28993     28994     28995
     28994     28996     28995     28996     28997     28998     28997     28999
     28998     28999     29000     29001     29000     29002     29001     29002
     29003     29004     29003     29005     29004     29005     29006     29007
     29006     29008     29007     29008     29009     29010     29009     29011
     29010     29011     29012     29013     29012     29014     29013     29014
     29015     29016     29015     29017     29016     29017     29018     29019
     29018     29020     29019     29020     29021     29022     29021     29023
     29022     29023     29024     29025     29024     29026     29025     29026
     29027     29028     29027     29029     29028     29029     29030     29031
     29030     29032     29031     29032     29033     29034     29033     29035
     29034     29035     29036     29037     29036     29038     29037     29038
     29039     29040     29039     29041     29040     29041     29042     29043
     29042     29044     29043     29044     29045     29046     29045     29047
     29046     29047     29048     29049     29048     29050     29049     29050
     29051     29052     29051     29053     29052     29053     29054     29055
     29054     29056     29055     29056     29057     29058     29057     29059
     29058     29059     29060     29061     29060     29062     29061     29062
     29063     29064     29063     29065     29064     29065     29066     29067
     29066     29068     29067     29068     29069     29070     29069     29071
     29070     29071     29072     29073     29072     29074     29073     29074
     29075     29076     29075     29077     29076     29077     29078     29079
     29078     29080     29079     29080     29081     29082     29081     29083
     29082     29083     29084     29085     29084     29086     29085     29086
     29087     29088     29087     29089     29088     29089     29090     29091
     29090     29092     29091     29092     29093     29094     29093     29095
     29094     29095     29096     29097     29096     29098     29097     29098
     29099     29100     29099     29101     29100     29101     29102     29103
     29102     29104     29103     29104     29105     29106     29105     29107
     29106     29107     29108     29109     29108     29110     29109     29110
     29111     29112     29111     29113     29112     29113     29114     29115
     29114     29116     29115     29116     29117     29118     29117     29119
     29118     29119     29120     29121     29120     29122     29121     29122
     29123     29124     29123     29125     29124     29125     29126     29127
     29126     29128     29127     29128     29129     29130     29129     29131
     29130     29131     29132     29133     29132     29134     29133     29134
     29135     29136     29135     29137     29136     29137     29138     29139
     29138     29140     29139     29140     29141     29142     29141     29143
     29142     29143     29144     29145     29144     29146     29145     29146
     29147     29148     29147     29149     29148     29149     29150     29151
     29150     29152     29151     29152     29153     29154     29153     29155
     29154     29155     29156     29157     29156     29158     29157     29158
     29159     29160     29159     29161     29160     29161     29162     29163
     29162     29164     29163     29164     29165     29166     29165     29167
     29166     29167     29168     29169     29168     29170     29169     29170
     29171     29172     29171     29173     29172     29173     29174     29175
     29174     29176     29175     29176     29177     29178     29177     29179
     29178     29179     29180     29181     29180     29182     29181     29182
     29183     29184     29183     29185     29184     29185     29186     29187
     29186     29188     29187     29188     29189     29190     29189     29191
     29190     29191     29192     29193     29192     29194     29193     29194
     29195     29196     29195     29197     29196     29197     29198     29199
     29198     29200     29199     29200     29201     29202     29201     29203
     29202     29203     29204     29205     29204     29206     29205     29206
     29207     29208     29207     29209     29208     29209     29210     29211
     29210     29212     29211     29212     29213     29214     29213     29215
     29214     29215     29216     29217     29216     29218     29217     29218
     29219     29220     29219     29221     29220     29221     29222     29223
     29222     29224     29223     29224     29225     29226     29225     29227
     29226     29227     29228     29229     29228     29230     29229     29230
     29231     29232     29231     29233     29232     29233     29234     29235
     29234     29236     29235     29236     29237     29238     29237     29239
     29238     29239     29240     29241     29240     29242     29241     29242
     29243     29244     29243     29245     29244     29245     29246     29247
     29246     29248     29247     29248     29249     29250     29249     29251
     29250     29251     29252     29253     29252     29254     29253     29254
     29255     29256     29255     29257     29256     29257     29258     29259
     29258     29260     29259     29260     29261     29262     29261     29263
     29262     29263     29264     29265     29264     29266     29265     29266
     29267     29268     29267     29269     29268     29269     29270     29271
     29270     29272     29271     29272     29273     29274     29273     29275
     29274     29275     29276     29277     29276     29278     29277     29278
     29279     29280     29279     29281     29280     29281     29282     29283
     29282     29284     29283     29284     29285     29286     29285     29287
     29286     29287     29288     29289     29288     29290     29289     29290
     29291     29292     29291     29293     29292     29293     29294     29295
     29294     29296     29295     29296     29297     29298     29297     29299
     29298     29299     29300     29301     29300     29302     29301     29302
     29303     29304     29303     29305     29304     29305     29306     29307
     29306     29308     29307     29308     29309     29310     29309     29311
     29310     29311     29312     29313     29312     29314     29313     29314
     29315     29316     29315     29317     29316     29317     29318     29319
     29318     29320     29319     29320     29321     29322     29321     29323
     29322     29323     29324     29325     29324     29326     29325     29326
     29327     29328     29327     29329     29328     29329     29330     29331
     29330     29332     29331     29332     29333     29334     29333     29335
     29334     29335     29336     29337     29336     29338     29337     29338
     29339     29340     29339     29341     29340     29341     29342     29343
     29342     29344     29343     29344     29345     29346     29345     29347
     29346     29347     29348     29349     29348     29350     29349     29350
     29351     29352     29351     29353     29352     29353     29354     29355
     29354     29356     29355     29356     29357     29358     29357     29359
     29358     29359     29360     29361     29360     29362     29361     29362
     29363     29364     29363     29365     29364     29365     29366     29367
     29366     29368     29367     29368     29369     29370     29369     29371
     29370     29371     29372     29373     29372     29374     29373     29374
     29375     29376     29375     29377     29376     29377     29378     29379
     29378     29380     29379     29380     29381     29382     29381     29383
     29382     29383     29384     29385     29384     29386     29385     29386
     29387     29388     29387     29389     29388     29389     29390     29391
     29390     29392     29391     29392     29393     29394     29393     29395
     29394     29395     29396     29397     29396     29398     29397     29398
     29399     29400     29399     29401     29400     29401     29402     29403
     29402     29404     29403     29404     29405     29406     29405     29407
     29406     29407     29408     29409     29408     29410     29409     29410
     29411     29412     29411     29413     29412     29413     29414     29415
     29414     29416     29415     29416     29417     29418     29417     29419
     29418     29419     29420     29421     29420     29422     29421     29422
     29423     29424     29423     29425     29424     29425     29426     29427
     29426     29428     29427     29428     29429     29430     29429     29431
     29430     29431     29432     29433     29432     29434     29433     29434
     29435     29436     29435     29437     29436     29437     29438     29439
     29438     29440     29439     29440     29441     29442     29441     29443
     29442     29443     29444     29445     29444     29446     29445     29446
     29447     29448     29447     29449     29448     29449     29450     29451
     29450     29452     29451     29452     29453     29454     29453     29455
     29454     29455     29456     29457     29456     29458     29457     29458
     29459     29460     29459     29461     29460     29461     29462     29463
     29462     29464     29463     29464     29465     29466     29465     29467
     29466     29467     29468     29469     29468     29470     29469     29470
     29471     29472     29471     29473     29472     29473     29474     29475
     29474     29476     29475     29476     29477     29478     29477     29479
     29478     29479     29480     29481     29480     29482     29481     29482
     29483     29484     29483     29485     29484     29485     29486     29487
     29486     29488     29487     29488     29489     29490     29489     29491
     29490     29491     29492     29493     29492     29494     29493     29494
     29495     29496     29495     29497     29496     29497     29498     29499
     29498     29500     29499     29500     29501     29502     29501     29503
     29502     29503     29504     29505     29504     29506     29505     29506
     29507     29508     29507     29509     29508     29509     29510     29511
     29510     29512     29511     29512     29513     29514     29513     29515
     29514     29515     29516     29517     29516     29518     29517     29518
     29519     29520     29519     29521     29520     29521     29522     29523
     29522     29524     29523     29524     29525     29526     29525     29527
     29526     29527     29528     29529     29528     29530     29529     29530
     29531     29532     29531     29533     29532     29533     29534     29535
     29534     29536     29535     29536     29537     29538     29537     29539
     29538     29539     29540     29541     29540     29542     29541     29542
     29543     29544     29543     29545     29544     29545     29546     29547
     29546     29548     29547     29548     29549     29550     29549     29551
     29550     29551     29552     29553     29552     29554     29553     29554
     29555     29556     29555     29557     29556     29557     29558     29559
     29558     29560     29559     29560     29561     29562     29561     29563
     29562     29563     29564     29565     29564     29566     29565     29566
     29567     29568     29567     29569     29568     29569     29570     29571
     29570     29572     29571     29572     29573     29574     29573     29575
     29574     29575     29576     29577     29576     29578     29577     29578
     29579     29580     29579     29581     29580     29581     29582     29583
     29582     29584     29583     29584     29585     29586     29585     29587
     29586     29587     29588     29589     29588     29590     29589     29590
     29591     29592     29591     29593     29592     29593     29594     29595
     29594     29596     29595     29596     29597     29598     29597     29599
     29598     29599     29600     29601     29600     29602     29601     29602
     29603     29604     29603     29605     29604     29605     29606     29607
     29606     29608     29607     29608     29609     29610     29609     29611
     29610     29611     29612     29613     29612     29614     29613     29614
     29615     29616     29615     29617     29616     29617     29618     29619
     29618     29620     29619     29620     29621     29622     29621     29623
     29622     29623     29624     29625     29624     29626     29625     29626
     29627     29628     29627     29629     29628     29629     29630     29631
     29630     29632     29631     29632     29633     29634     29633     29635
     29634     29635     29636     29637     29636     29638     29637     29638
     29639     29640     29639     29641     29640     29641     29642     29643
     29642     29644     29643     29644     29645     29646     29645     29647
     29646     29647     29648     29649     29648     29650     29649     29650
     29651     29652     29651     29653     29652     29653     29654     29655
     29654     29656     29655     29656     29657     29658     29657     29659
     29658     29659     29660     29661     29660     29662     29661     29662
     29663     29664     29663     29665     29664     29665     29666     29667
     29666     29668     29667     29668     29669     29670     29669     29671
     29670     29671     29672     29673     29672     29674     29673     29674
     29675     29676     29675     29677     29676     29677     29678     29679
     29678     29680     29679     29680     29681     29682     29681     29683
     29682     29683     29684     29685     29684     29686     29685     29686
     29687     29688     29687     29689     29688     29689     29690     29691
     29690     29692     29691     29692     29693     29694     29693     29695
     29694     29695     29696     29697     29696     29698     29697     29698
     29699     29700     29699     29701     29700     29701     29702     29703
     29702     29704     29703     29704     29705     29706     29705     29707
     29706     29707     29708     29709     29708     29710     29709     29710
     29711     29712     29711     29713     29712     29713     29714     29715
     29714     29716     29715     29716     29717     29718     29717     29719
     29718     29719     29720     29721     29720     29722     29721     29722
     29723     29724     29723     29725     29724     29725     29726     29727
     29726     29728     29727     29728     29729     29730     29729     29731
     29730     29731     29732     29733     29732     29734     29733     29734
     29735     29736     29735     29737     29736     29737     29738     29739
     29738     29740     29739     29740     29741     29742     29741     29743
     29742     29743     29744     29745     29744     29746     29745     29746
     29747     29748     29747     29749     29748     29749     29750     29751
     29750     29752     29751     29752     29753     29754     29753     29755
     29754     29755     29756     29757     29756     29758     29757     29758
     29759     29760     29759     29761     29760     29761     29762     29763
     29762     29764     29763     29764     29765     29766     29765     29767
     29766     29767     29768     29769     29768     29770     29769     29770
     29771     29772     29771     29773     29772     29773     29774     29775
     29774     29776     29775     29776     29777     29778     29777     29779
     29778     29779     29780     29781     29780     29782     29781     29782
     29783     29784     29783     29785     29784     29785     29786     29787
     29786     29788     29787     29788     29789     29790     29789     29791
     29790     29791     29792     29793     29792     29794     29793     29794
     29795     29796     29795     29797     29796     29797     29798     29799
     29798     29800     29799     29800     29801     29802     29801     29803
     29802     29803     29804     29805     29804     29806     29805     29806
     29807     29808     29807     29809     29808     29809     29810     29811
     29810     29812     29811     29812     29813     29814     29813     29815
     29814     29815     29816     29817     29816     29818     29817     29818
     29819     29820     29819     29821     29820     29821     29822     29823
     29822     29824     29823     29824     29825     29826     29825     29827
     29826     29827     29828     29829     29828     29830     29829     29830
     29831     29832     29831     29833     29832     29833     29834     29835
     29834     29836     29835     29836     29837     29838     29837     29839
     29838     29839     29840     29841     29840     29842     29841     29842
     29843     29844     29843     29845     29844     29845     29846     29847
     29846     29848     29847     29848     29849     29850     29849     29851
     29850     29851     29852     29853     29852     29854     29853     29854
     29855     29856     29855     29857     29856     29857     29858     29859
     29858     29860     29859     29860     29861     29862     29861     29863
     29862     29863     29864     29865     29864     29866     29865     29866
     29867     29868     29867     29869     29868     29869     29870     29871
     29870     29872     29871     29872     29873     29874     29873     29875
     29874     29875     29876     29877     29876     29878     29877     29878
     29879     29880     29879     29881     29880     29881     29882     29883
     29882     29884     29883     29884     29885     29886     29885     29887
     29886     29887     29888     29889     29888     29890     29889     29890
     29891     29892     29891     29893     29892     29893     29894     29895
     29894     29896     29895     29896     29897     29898     29897     29899
     29898     29899     29900     29901     29900     29902     29901     29902
     29903     29904     29903     29905     29904     29905     29906     29907
     29906     29908     29907     29908     29909     29910     29909     29911
     29910     29911     29912     29913     29912     29914     29913     29914
     29915     29916     29915     29917     29916     29917     29918     29919
     29918     29920     29919     29920     29921     29922     29921     29923
     29922     29923     29924     29925     29924     29926     29925     29926
     29927     29928     29927     29929     29928     29929     29930     29931
     29930     29932     29931     29932     29933     29934     29933     29935
     29934     29935     29936     29937     29936     29938     29937     29938
     29939     29940     29939     29941     29940     29941     29942     29943
     29942     29944     29943     29944     29945     29946     29945     29947
     29946     29947     29948     29949     29948     29950     29949     29950
     29951     29952     29951     29953     29952     29953     29954     29955
     29954     29956     29955     29956     29957     29958     29957     29959
     29958     29959     29960     29961     29960     29962     29961     29962
     29963     29964     29963     29965     29964     29965     29966     29967
     29966     29968     29967     29968     29969     29970     29969     29971
     29970     29971     29972     29973     29972     29974     29973     29974
     29975     29976     29975     29977     29976     29977     29978     29979
     29978     29980     29979     29980     29981     29982     29981     29983
     29982     29983     29984     29985     29984     29986     29985     29986
     29987     29988     29987     29989     29988     29989     29990     29991
     29990     29992     29991     29992     29993     29994     29993     29995
     29994     29995     29996     29997     29996     29998     29997     29998
     29999     30000     29999     30001     30000     30001     30002     30003
     30002     30004     30003     30004     30005     30006     30005     30007
     30006     30007     30008     30009     30008     30010     30009     30010
     30011     30012     30011     30013     30012     30013     30014     30015
     30014     30016     30015     30016     30017     30018     30017     30019
     30018     30019     30020     30021     30020     30022     30021     30022
     30023     30024     30023     30025     30024     30025     30026     30027
     30026     30028     30027     30028     30029     30030     30029     30031
     30030     30031     30032     30033     30032     30034     30033     30034
     30035     30036     30035     30037     30036     30037     30038     30039
     30038     30040     30039     30040     30041     30042     30041     30043
     30042     30043     30044     30045     30044     30046     30045     30046
     30047     30048     30047     30049     30048     30049     30050     30051
     30050     30052     30051     30052     30053     30054     30053     30055
     30054     30055     30056     30057     30056     30058     30057     30058
     30059     30060     30059     30061     30060     30061     30062     30063
     30062     30064     30063     30064     30065     30066     30065     30067
     30066     30067     30068     30069     30068     30070     30069     30070
     30071     30072     30071     30073     30072     30073     30074     30075
     30074     30076     30075     30076     30077     30078     30077     30079
     30078     30079     30080     30081     30080     30082     30081     30082
     30083     30084     30083     30085     30084     30085     30086     30087
     30086     30088     30087     30088     30089     30090     30089     30091
     30090     30091     30092     30093     30092     30094     30093     30094
     30095     30096     30095     30097     30096     30097     30098     30099
     30098     30100     30099     30100     30101     30102     30101     30103
     30102     30103     30104     30105     30104     30106     30105     30106
     30107     30108     30107     30109     30108     30109     30110     30111
     30110     30112     30111     30112     30113     30114     30113     30115
     30114     30115     30116     30117     30116     30118     30117     30118
     30119     30120     30119     30121     30120     30121     30122     30123
     30122     30124     30123     30124     30125     30126     30125     30127
     30126     30127     30128     30129     30128     30130     30129     30130
     30131     30132     30131     30133     30132     30133     30134     30135
     30134     30136     30135     30136     30137     30138     30137     30139
     30138     30139     30140     30141     30140     30142     30141     30142
     30143     30144     30143     30145     30144     30145     30146     30147
     30146     30148     30147     30148     30149     30150     30149     30151
     30150     30151     30152     30153     30152     30154     30153     30154
     30155     30156     30155     30157     30156     30157     30158     30159
     30158     30160     30159     30160     30161     30162     30161     30163
     30162     30163     30164     30165     30164     30166     30165     30166
     30167     30168     30167     30169     30168     30169     30170     30171
     30170     30172     30171     30172     30173     30174     30173     30175
     30174     30175     30176     30177     30176     30178     30177     30178
     30179     30180     30179     30181     30180     30181     30182     30183
     30182     30184     30183     30184     30185     30186     30185     30187
     30186     30187     30188     30189     30188     30190     30189     30190
     30191     30192     30191     30193     30192     30193     30194     30195
     30194     30196     30195     30196     30197     30198     30197     30199
     30198     30199     30200     30201     30200     30202     30201     30202
     30203     30204     30203     30205     30204     30205     30206     30207
     30206     30208     30207     30208     30209     30210     30209     30211
     30210     30211     30212     30213     30212     30214     30213     30214
     30215     30216     30215     30217     30216     30217     30218     30219
     30218     30220     30219     30220     30221     30222     30221     30223
     30222     30223     30224     30225     30224     30226     30225     30226
     30227     30228     30227     30229     30228     30229     30230     30231
     30230     30232     30231     30232     30233     30234     30233     30235
     30234     30235     30236     30237     30236     30238     30237     30238
     30239     30240     30239     30241     30240     30241     30242     30243
     30242     30244     30243     30244     30245     30246     30245     30247
     30246     30247     30248     30249     30248     30250     30249     30250
     30251     30252     30251     30253     30252     30253     30254     30255
     30254     30256     30255     30256     30257     30258     30257     30259
     30258     30259     30260     30261     30260     30262     30261     30262
     30263     30264     30263     30265     30264     30265     30266     30267
     30266     30268     30267     30268     30269     30270     30269     30271
     30270     30271     30272     30273     30272     30274     30273     30274
     30275     30276     30275     30277     30276     30277     30278     30279
     30278     30280     30279     30280     30281     30282     30281     30283
     30282     30283     30284     30285     30284     30286     30285     30286
     30287     30288     30287     30289     30288     30289     30290     30291
     30290     30292     30291     30292     30293     30294     30293     30295
     30294     30295     30296     30297     30296     30298     30297     30298
     30299     30300     30299     30301     30300     30301     30302     30303
     30302     30304     30303     30304     30305     30306     30305     30307
     30306     30307     30308     30309     30308     30310     30309     30310
     30311     30312     30311     30313     30312     30313     30314     30315
     30314     30316     30315     30316     30317     30318     30317     30319
     30318     30319     30320     30321     30320     30322     30321     30322
     30323     30324     30323     30325     30324     30325     30326     30327
     30326     30328     30327     30328     30329     30330     30329     30331
     30330     30331     30332     30333     30332     30334     30333     30334
     30335     30336     30335     30337     30336     30337     30338     30339
     30338     30340     30339     30340     30341     30342     30341     30343
     30342     30343     30344     30345     30344     30346     30345     30346
     30347     30348     30347     30349     30348     30349     30350     30351
     30350     30352     30351     30352     30353     30354     30353     30355
     30354     30355     30356     30357     30356     30358     30357     30358
     30359     30360     30359     30361     30360     30361     30362     30363
     30362     30364     30363     30364     30365     30366     30365     30367
     30366     30367     30368     30369     30368     30370     30369     30370
     30371     30372     30371     30373     30372     30373     30374     30375
     30374     30376     30375     30376     30377     30378     30377     30379
     30378     30379     30380     30381     30380     30382     30381     30382
     30383     30384     30383     30385     30384     30385     30386     30387
     30386     30388     30387     30388     30389     30390     30389     30391
     30390     30391     30392     30393     30392     30394     30393     30394
     30395     30396     30395     30397     30396     30397     30398     30399
     30398     30400     30399     30400     30401     30402     30401     30403
     30402     30403     30404     30405     30404     30406     30405     30406
     30407     30408     30407     30409     30408     30409     30410     30411
     30410     30412     30411     30412     30413     30414     30413     30415
     30414     30415     30416     30417     30416     30418     30417     30418
     30419     30420     30419     30421     30420     30421     30422     30423
     30422     30424     30423     30424     30425     30426     30425     30427
     30426     30427     30428     30429     30428     30430     30429     30430
     30431     30432     30431     30433     30432     30433     30434     30435
     30434     30436     30435     30436     30437     30438     30437     30439
     30438     30439     30440     30441     30440     30442     30441     30442
     30443     30444     30443     30445     30444     30445     30446     30447
     30446     30448     30447     30448     30449     30450     30449     30451
     30450     30451     30452     30453     30452     30454     30453     30454
     30455     30456     30455     30457     30456     30457     30458     30459
     30458     30460     30459     30460     30461     30462     30461     30463
     30462     30463     30464     30465     30464     30466     30465     30466
     30467     30468     30467     30469     30468     30469     30470     30471
     30470     30472     30471     30472     30473     30474     30473     30475
     30474     30475     30476     30477     30476     30478     30477     30478
     30479     30480     30479     30481     30480     30481     30482     30483
     30482     30484     30483     30484     30485     30486     30485     30487
     30486     30487     30488     30489     30488     30490     30489     30490
     30491     30492     30491     30493     30492     30493     30494     30495
     30494     30496     30495     30496     30497     30498     30497     30499
     30498     30499     30500     30501     30500     30502     30501     30502
     30503     30504     30503     30505     30504     30505     30506     30507
     30506     30508     30507     30508     30509     30510     30509     30511
     30510     30511     30512     30513     30512     30514     30513     30514
     30515     30516     30515     30517     30516     30517     30518     30519
     30518     30520     30519     30520     30521     30522     30521     30523
     30522     30523     30524     30525     30524     30526     30525     30526
     30527     30528     30527     30529     30528     30529     30530     30531
     30530     30532     30531     30532     30533     30534     30533     30535
     30534     30535     30536     30537     30536     30538     30537     30538
     30539     30540     30539     30541     30540     30541     30542     30543
     30542     30544     30543     30544     30545     30546     30545     30547
     30546     30547     30548     30549     30548     30550     30549     30550
     30551     30552     30551     30553     30552     30553     30554     30555
     30554     30556     30555     30556     30557     30558     30557     30559
     30558     30559     30560     30561     30560     30562     30561     30562
     30563     30564     30563     30565     30564     30565     30566     30567
     30566     30568     30567     30568     30569     30570     30569     30571
     30570     30571     30572     30573     30572     30574     30573     30574
     30575     30576     30575     30577     30576     30577     30578     30579
     30578     30580     30579     30580     30581     30582     30581     30583
     30582     30583     30584     30585     30584     30586     30585     30586
     30587     30588     30587     30589     30588     30589     30590     30591
     30590     30592     30591     30592     30593     30594     30593     30595
     30594     30595     30596     30597     30596     30598     30597     30598
     30599     30600     30599     30601     30600     30601     30602     30603
     30602     30604     30603     30604     30605     30606     30605     30607
     30606     30607     30608     30609     30608     30610     30609     30610
     30611     30612     30611     30613     30612     30613     30614     30615
     30614     30616     30615     30616     30617     30618     30617     30619
     30618     30619     30620     30621     30620     30622     30621     30622
     30623     30624     30623     30625     30624     30625     30626     30627
     30626     30628     30627     30628     30629     30630     30629     30631
     30630     30631     30632     30633     30632     30634     30633     30634
     30635     30636     30635     30637     30636     30637     30638     30639
     30638     30640     30639     30640     30641     30642     30641     30643
     30642     30643     30644     30645     30644     30646     30645     30646
     30647     30648     30647     30649     30648     30649     30650     30651
     30650     30652     30651     30652     30653     30654     30653     30655
     30654     30655     30656     30657     30656     30658     30657     30658
     30659     30660     30659     30661     30660     30661     30662     30663
     30662     30664     30663     30664     30665     30666     30665     30667
     30666     30667     30668     30669     30668     30670     30669     30670
     30671     30672     30671     30673     30672     30673     30674     30675
     30674     30676     30675     30676     30677     30678     30677     30679
     30678     30679     30680     30681     30680     30682     30681     30682
     30683     30684     30683     30685     30684     30685     30686     30687
     30686     30688     30687     30688     30689     30690     30689     30691
     30690     30691     30692     30693     30692     30694     30693     30694
     30695     30696     30695     30697     30696     30697     30698     30699
     30698     30700     30699     30700     30701     30702     30701     30703
     30702     30703     30704     30705     30704     30706     30705     30706
     30707     30708     30707     30709     30708     30709     30710     30711
     30710     30712     30711     30712     30713     30714     30713     30715
     30714     30715     30716     30717     30716     30718     30717     30718
     30719     30720     30719     30721     30720     30721     30722     30723
     30722     30724     30723     30724     30725     30726     30725     30727
     30726     30727     30728     30729     30728     30730     30729     30730
     30731     30732     30731     30733     30732     30733     30734     30735
     30734     30736     30735     30736     30737     30738     30737     30739
     30738     30739     30740     30741     30740     30742     30741     30742
     30743     30744     30743     30745     30744     30745     30746     30747
     30746     30748     30747     30748     30749     30750     30749     30751
     30750     30751     30752     30753     30752     30754     30753     30754
     30755     30756     30755     30757     30756     30757     30758     30759
     30758     30760     30759     30760     30761     30762     30761     30763
     30762     30763     30764     30765     30764     30766     30765     30766
     30767     30768     30767     30769     30768     30769     30770     30771
     30770     30772     30771     30772     30773     30774     30773     30775
     30774     30775     30776     30777     30776     30778     30777     30778
     30779     30780     30779     30781     30780     30781     30782     30783
     30782     30784     30783     30784     30785     30786     30785     30787
     30786     30787     30788     30789     30788     30790     30789     30790
     30791     30792     30791     30793     30792     30793     30794     30795
     30794     30796     30795     30796     30797     30798     30797     30799
     30798     30799     30800     30801     30800     30802     30801     30802
     30803     30804     30803     30805     30804     30805     30806     30807
     30806     30808     30807     30808     30809     30810     30809     30811
     30810     30811     30812     30813     30812     30814     30813     30814
     30815     30816     30815     30817     30816     30817     30818     30819
     30818     30820     30819     30820     30821     30822     30821     30823
     30822     30823     30824     30825     30824     30826     30825     30826
     30827     30828     30827     30829     30828     30829     30830     30831
     30830     30832     30831     30832     30833     30834     30833     30835
     30834     30835     30836     30837     30836     30838     30837     30838
     30839     30840     30839     30841     30840     30841     30842     30843
     30842     30844     30843     30844     30845     30846     30845     30847
     30846     30847     30848     30849     30848     30850     30849     30850
     30851     30852     30851     30853     30852     30853     30854     30855
     30854     30856     30855     30856     30857     30858     30857     30859
     30858     30859     30860     30861     30860     30862     30861     30862
     30863     30864     30863     30865     30864     30865     30866     30867
     30866     30868     30867     30868     30869     30870     30869     30871
     30870     30871     30872     30873     30872     30874     30873     30874
     30875     30876     30875     30877     30876     30877     30878     30879
     30878     30880     30879     30880     30881     30882     30881     30883
     30882     30883     30884     30885     30884     30886     30885     30886
     30887     30888     30887     30889     30888     30889     30890     30891
     30890     30892     30891     30892     30893     30894     30893     30895
     30894     30895     30896     30897     30896     30898     30897     30898
     30899     30900     30899     30901     30900     30901     30902     30903
     30902     30904     30903     30904     30905     30906     30905     30907
     30906     30907     30908     30909     30908     30910     30909     30910
     30911     30912     30911     30913     30912     30913     30914     30915
     30914     30916     30915     30916     30917     30918     30917     30919
     30918     30919     30920     30921     30920     30922     30921     30922
     30923     30924     30923     30925     30924     30925     30926     30927
     30926     30928     30927     30928     30929     30930     30929     30931
     30930     30931     30932     30933     30932     30934     30933     30934
     30935     30936     30935     30937     30936     30937     30938     30939
     30938     30940     30939     30940     30941     30942     30941     30943
     30942     30943     30944     30945     30944     30946     30945     30946
     30947     30948     30947     30949     30948     30949     30950     30951
     30950     30952     30951     30952     30953     30954     30953     30955
     30954     30955     30956     30957     30956     30958     30957     30958
     30959     30960     30959     30961     30960     30961     30962     30963
     30962     30964     30963     30964     30965     30966     30965     30967
     30966     30967     30968     30969     30968     30970     30969     30970
     30971     30972     30971     30973     30972     30973     30974     30975
     30974     30976     30975     30976     30977     30978     30977     30979
     30978     30979     30980     30981     30980     30982     30981     30982
     30983     30984     30983     30985     30984     30985     30986     30987
     30986     30988     30987     30988     30989     30990     30989     30991
     30990     30991     30992     30993     30992     30994     30993     30994
     30995     30996     30995     30997     30996     30997     30998     30999
     30998     31000     30999     31000     31001     31002     31001     31003
     31002     31003     31004     31005     31004     31006     31005     31006
     31007     31008     31007     31009     31008     31009     31010     31011
     31010     31012     31011     31012     31013     31014     31013     31015
     31014     31015     31016     31017     31016     31018     31017     31018
     31019     31020     31019     31021     31020     31021     31022     31023
     31022     31024     31023     31024     31025     31026     31025     31027
     31026     31027     31028     31029     31028     31030     31029     31030
     31031     31032     31031     31033     31032     31033     31034     31035
     31034     31036     31035     31036     31037     31038     31037     31039
     31038     31039     31040     31041     31040     31042     31041     31042
     31043     31044     31043     31045     31044     31045     31046     31047
     31046     31048     31047     31048     31049     31050     31049     31051
     31050     31051     31052     31053     31052     31054     31053     31054
     31055     31056     31055     31057     31056     31057     31058     31059
     31058     31060     31059     31060     31061     31062     31061     31063
     31062     31063     31064     31065     31064     31066     31065     31066
     31067     31068     31067     31069     31068     31069     31070     31071
     31070     31072     31071     31072     31073     31074     31073     31075
     31074     31075     31076     31077     31076     31078     31077     31078
     31079     31080     31079     31081     31080     31081     31082     31083
     31082     31084     31083     31084     31085     31086     31085     31087
     31086     31087     31088     31089     31088     31090     31089     31090
     31091     31092     31091     31093     31092     31093     31094     31095
     31094     31096     31095     31096     31097     31098     31097     31099
     31098     31099     31100     31101     31100     31102     31101     31102
     31103     31104     31103     31105     31104     31105     31106     31107
     31106     31108     31107     31108     31109     31110     31109     31111
     31110     31111     31112     31113     31112     31114     31113     31114
     31115     31116     31115     31117     31116     31117     31118     31119
     31118     31120     31119     31120     31121     31122     31121     31123
     31122     31123     31124     31125     31124     31126     31125     31126
     31127     31128     31127     31129     31128     31129     31130     31131
     31130     31132     31131     31132     31133     31134     31133     31135
     31134     31135     31136     31137     31136     31138     31137     31138
     31139     31140     31139     31141     31140     31141     31142     31143
     31142     31144     31143     31144     31145     31146     31145     31147
     31146     31147     31148     31149     31148     31150     31149     31150
     31151     31152     31151     31153     31152     31153     31154     31155
     31154     31156     31155     31156     31157     31158     31157     31159
     31158     31159     31160     31161     31160     31162     31161     31162
     31163     31164     31163     31165     31164     31165     31166     31167
     31166     31168     31167     31168     31169     31170     31169     31171
     31170     31171     31172     31173     31172     31174     31173     31174
     31175     31176     31175     31177     31176     31177     31178     31179
     31178     31180     31179     31180     31181     31182     31181     31183
     31182     31183     31184     31185     31184     31186     31185     31186
     31187     31188     31187     31189     31188     31189     31190     31191
     31190     31192     31191     31192     31193     31194     31193     31195
     31194     31195     31196     31197     31196     31198     31197     31198
     31199     31200     31199     31201     31200     31201     31202     31203
     31202     31204     31203     31204     31205     31206     31205     31207
     31206     31207     31208     31209     31208     31210     31209     31210
     31211     31212     31211     31213     31212     31213     31214     31215
     31214     31216     31215     31216     31217     31218     31217     31219
     31218     31219     31220     31221     31220     31222     31221     31222
     31223     31224     31223     31225     31224     31225     31226     31227
     31226     31228     31227     31228     31229     31230     31229     31231
     31230     31231     31232     31233     31232     31234     31233     31234
     31235     31236     31235     31237     31236     31237     31238     31239
     31238     31240     31239     31240     31241     31242     31241     31243
     31242     31243     31244     31245     31244     31246     31245     31246
     31247     31248     31247     31249     31248     31249     31250     31251
     31250     31252     31251     31252     31253     31254     31253     31255
     31254     31255     31256     31257     31256     31258     31257     31258
     31259     31260     31259     31261     31260     31261     31262     31263
     31262     31264     31263     31264     31265     31266     31265     31267
     31266     31267     31268     31269     31268     31270     31269     31270
     31271     31272     31271     31273     31272     31273     31274     31275
     31274     31276     31275     31276     31277     31278     31277     31279
     31278     31279     31280     31281     31280     31282     31281     31282
     31283     31284     31283     31285     31284     31285     31286     31287
     31286     31288     31287     31288     31289     31290     31289     31291
     31290     31291     31292     31293     31292     31294     31293     31294
     31295     31296     31295     31297     31296     31297     31298     31299
     31298     31300     31299     31300     31301     31302     31301     31303
     31302     31303     31304     31305     31304     31306     31305     31306
     31307     31308     31307     31309     31308     31309     31310     31311
     31310     31312     31311     31312     31313     31314     31313     31315
     31314     31315     31316     31317     31316     31318     31317     31318
     31319     31320     31319     31321     31320     31321     31322     31323
     31322     31324     31323     31324     31325     31326     31325     31327
     31326     31327     31328     31329     31328     31330     31329     31330
     31331     31332     31331     31333     31332     31333     31334     31335
     31334     31336     31335     31336     31337     31338     31337     31339
     31338     31339     31340     31341     31340     31342     31341     31342
     31343     31344     31343     31345     31344     31345     31346     31347
     31346     31348     31347     31348     31349     31350     31349     31351
     31350     31351     31352     31353     31352     31354     31353     31354
     31355     31356     31355     31357     31356     31357     31358     31359
     31358     31360     31359     31360     31361     31362     31361     31363
     31362     31363     31364     31365     31364     31366     31365     31366
     31367     31368     31367     31369     31368     31369     31370     31371
     31370     31372     31371     31372     31373     31374     31373     31375
     31374     31375     31376     31377     31376     31378     31377     31378
     31379     31380     31379     31381     31380     31381     31382     31383
     31382     31384     31383     31384     31385     31386     31385     31387
     31386     31387     31388     31389     31388     31390     31389     31390
     31391     31392     31391     31393     31392     31393     31394     31395
     31394     31396     31395     31396     31397     31398     31397     31399
     31398     31399     31400     31401     31400     31402     31401     31402
     31403     31404     31403     31405     31404     31405     31406     31407
     31406     31408     31407     31408     31409     31410     31409     31411
     31410     31411     31412     31413     31412     31414     31413     31414
     31415     31416     31415     31417     31416     31417     31418     31419
     31418     31420     31419     31420     31421     31422     31421     31423
     31422     31423     31424     31425     31424     31426     31425     31426
     31427     31428     31427     31429     31428     31429     31430     31431
     31430     31432     31431     31432     31433     31434     31433     31435
     31434     31435     31436     31437     31436     31438     31437     31438
     31439     31440     31439     31441     31440     31441     31442     31443
     31442     31444     31443     31444     31445     31446     31445     31447
     31446     31447     31448     31449     31448     31450     31449     31450
     31451     31452     31451     31453     31452     31453     31454     31455
     31454     31456     31455     31456     31457     31458     31457     31459
     31458     31459     31460     31461     31460     31462     31461     31462
     31463     31464     31463     31465     31464     31465     31466     31467
     31466     31468     31467     31468     31469     31470     31469     31471
     31470     31471     31472     31473     31472     31474     31473     31474
     31475     31476     31475     31477     31476     31477     31478     31479
     31478     31480     31479     31480     31481     31482     31481     31483
     31482     31483     31484     31485     31484     31486     31485     31486
     31487     31488     31487     31489     31488     31489     31490     31491
     31490     31492     31491     31492     31493     31494     31493     31495
     31494     31495     31496     31497     31496     31498     31497     31498
     31499     31500     31499     31501     31500     31501     31502     31503
     31502     31504     31503     31504     31505     31506     31505     31507
     31506     31507     31508     31509     31508     31510     31509     31510
     31511     31512     31511     31513     31512     31513     31514     31515
     31514     31516     31515     31516     31517     31518     31517     31519
     31518     31519     31520     31521     31520     31522     31521     31522
     31523     31524     31523     31525     31524     31525     31526     31527
     31526     31528     31527     31528     31529     31530     31529     31531
     31530     31531     31532     31533     31532     31534     31533     31534
     31535     31536     31535     31537     31536     31537     31538     31539
     31538     31540     31539     31540     31541     31542     31541     31543
     31542     31543     31544     31545     31544     31546     31545     31546
     31547     31548     31547     31549     31548     31549     31550     31551
     31550     31552     31551     31552     31553     31554     31553     31555
     31554     31555     31556     31557     31556     31558     31557     31558
     31559     31560     31559     31561     31560     31561     31562     31563
     31562     31564     31563     31564     31565     31566     31565     31567
     31566     31567     31568     31569     31568     31570     31569     31570
     31571     31572     31571     31573     31572     31573     31574     31575
     31574     31576     31575     31576     31577     31578     31577     31579
     31578     31579     31580     31581     31580     31582     31581     31582
     31583     31584     31583     31585     31584     31585     31586     31587
     31586     31588     31587     31588     31589     31590     31589     31591
     31590     31591     31592     31593     31592     31594     31593     31594
     31595     31596     31595     31597     31596     31597     31598     31599
     31598     31600     31599     31600     31601     31602     31601     31603
     31602     31603     31604     31605     31604     31606     31605     31606
     31607     31608     31607     31609     31608     31609     31610     31611
     31610     31612     31611     31612     31613     31614     31613     31615
     31614     31615     31616     31617     31616     31618     31617     31618
     31619     31620     31619     31621     31620     31621     31622     31623
     31622     31624     31623     31624     31625     31626     31625     31627
     31626     31627     31628     31629     31628     31630     31629     31630
     31631     31632     31631     31633     31632     31633     31634     31635
     31634     31636     31635     31636     31637     31638     31637     31639
     31638     31639     31640     31641     31640     31642     31641     31642
     31643     31644     31643     31645     31644     31645     31646     31647
     31646     31648     31647     31648     31649     31650     31649     31651
     31650     31651     31652     31653     31652     31654     31653     31654
     31655     31656     31655     31657     31656     31657     31658     31659
     31658     31660     31659     31660     31661     31662     31661     31663
     31662     31663     31664     31665     31664     31666     31665     31666
     31667     31668     31667     31669     31668     31669     31670     31671
     31670     31672     31671     31672     31673     31674     31673     31675
     31674     31675     31676     31677     31676     31678     31677     31678
     31679     31680     31679     31681     31680     31681     31682     31683
     31682     31684     31683     31684     31685     31686     31685     31687
     31686     31687     31688     31689     31688     31690     31689     31690
     31691     31692     31691     31693     31692     31693     31694     31695
     31694     31696     31695     31696     31697     31698     31697     31699
     31698     31699     31700     31701     31700     31702     31701     31702
     31703     31704     31703     31705     31704     31705     31706     31707
     31706     31708     31707     31708     31709     31710     31709     31711
     31710     31711     31712     31713     31712     31714     31713     31714
     31715     31716     31715     31717     31716     31717     31718     31719
     31718     31720     31719     31720     31721     31722     31721     31723
     31722     31723     31724     31725     31724     31726     31725     31726
     31727     31728     31727     31729     31728     31729     31730     31731
     31730     31732     31731     31732     31733     31734     31733     31735
     31734     31735     31736     31737     31736     31738     31737     31738
     31739     31740     31739     31741     31740     31741     31742     31743
     31742     31744     31743     31744     31745     31746     31745     31747
     31746     31747     31748     31749     31748     31750     31749     31750
     31751     31752     31751     31753     31752     31753     31754     31755
     31754     31756     31755     31756     31757     31758     31757     31759
     31758     31759     31760     31761     31760     31762     31761     31762
     31763     31764     31763     31765     31764     31765     31766     31767
     31766     31768     31767     31768     31769     31770     31769     31771
     31770     31771     31772     31773     31772     31774     31773     31774
     31775     31776     31775     31777     31776     31777     31778     31779
     31778     31780     31779     31780     31781     31782     31781     31783
     31782     31783     31784     31785     31784     31786     31785     31786
     31787     31788     31787     31789     31788     31789     31790     31791
     31790     31792     31791     31792     31793     31794     31793     31795
     31794     31795     31796     31797     31796     31798     31797     31798
     31799     31800     31799     31801     31800     31801     31802     31803
     31802     31804     31803     31804     31805     31806     31805     31807
     31806     31807     31808     31809     31808     31810     31809     31810
     31811     31812     31811     31813     31812     31813     31814     31815
     31814     31816     31815     31816     31817     31818     31817     31819
     31818     31819     31820     31821     31820     31822     31821     31822
     31823     31824     31823     31825     31824     31825     31826     31827
     31826     31828     31827     31828     31829     31830     31829     31831
     31830     31831     31832     31833     31832     31834     31833     31834
     31835     31836     31835     31837     31836     31837     31838     31839
     31838     31840     31839     31840     31841     31842     31841     31843
     31842     31843     31844     31845     31844     31846     31845     31846
     31847     31848     31847     31849     31848     31849     31850     31851
     31850     31852     31851     31852     31853     31854     31853     31855
     31854     31855     31856     31857     31856     31858     31857     31858
     31859     31860     31859     31861     31860     31861     31862     31863
     31862     31864     31863     31864     31865     31866     31865     31867
     31866     31867     31868     31869     31868     31870     31869     31870
     31871     31872     31871     31873     31872     31873     31874     31875
     31874     31876     31875     31876     31877     31878     31877     31879
     31878     31879     31880     31881     31880     31882     31881     31882
     31883     31884     31883     31885     31884     31885     31886     31887
     31886     31888     31887     31888     31889     31890     31889     31891
     31890     31891     31892     31893     31892     31894     31893     31894
     31895     31896     31895     31897     31896     31897     31898     31899
     31898     31900     31899     31900     31901     31902     31901     31903
     31902     31903     31904     31905     31904     31906     31905     31906
     31907     31908     31907     31909     31908     31909     31910     31911
     31910     31912     31911     31912     31913     31914     31913     31915
     31914     31915     31916     31917     31916     31918     31917     31918
     31919     31920     31919     31921     31920     31921     31922     31923
     31922     31924     31923     31924     31925     31926     31925     31927
     31926     31927     31928     31929     31928     31930     31929     31930
     31931     31932     31931     31933     31932     31933     31934     31935
     31934     31936     31935     31936     31937     31938     31937     31939
     31938     31939     31940     31941     31940     31942     31941     31942
     31943     31944     31943     31945     31944     31945     31946     31947
     31946     31948     31947     31948     31949     31950     31949     31951
     31950     31951     31952     31953     31952     31954     31953     31954
     31955     31956     31955     31957     31956     31957     31958     31959
     31958     31960     31959     31960     31961     31962     31961     31963
     31962     31963     31964     31965     31964     31966     31965     31966
     31967     31968     31967     31969     31968     31969     31970     31971
     31970     31972     31971     31972     31973     31974     31973     31975
     31974     31975     31976     31977     31976     31978     31977     31978
     31979     31980     31979     31981     31980     31981     31982     31983
     31982     31984     31983     31984     31985     31986     31985     31987
     31986     31987     31988     31989     31988     31990     31989     31990
     31991     31992     31991     31993     31992     31993     31994     31995
     31994     31996     31995     31996     31997     31998     31997     31999
     31998     31999     32000     32001     32000     32002     32001     32002
     32003     32004     32003     32005     32004     32005     32006     32007
     32006     32008     32007     32008     32009     32010     32009     32011
     32010     32011     32012     32013     32012     32014     32013     32014
     32015     32016     32015     32017     32016     32017     32018     32019
     32018     32020     32019     32020     32021     32022     32021     32023
     32022     32023     32024     32025     32024     32026     32025     32026
     32027     32028     32027     32029     32028     32029     32030     32031
     32030     32032     32031     32032     32033     32034     32033     32035
     32034     32035     32036     32037     32036     32038     32037     32038
     32039     32040     32039     32041     32040     32041     32042     32043
     32042     32044     32043     32044     32045     32046     32045     32047
     32046     32047     32048     32049     32048     32050     32049     32050
     32051     32052     32051     32053     32052     32053     32054     32055
     32054     32056     32055     32056     32057     32058     32057     32059
     32058     32059     32060     32061     32060     32062     32061     32062
     32063     32064     32063     32065     32064     32065     32066     32067
     32066     32068     32067     32068     32069     32070     32069     32071
     32070     32071     32072     32073     32072     32074     32073     32074
     32075     32076     32075     32077     32076     32077     32078     32079
     32078     32080     32079     32080     32081     32082     32081     32083
     32082     32083     32084     32085     32084     32086     32085     32086
     32087     32088     32087     32089     32088     32089     32090     32091
     32090     32092     32091     32092     32093     32094     32093     32095
     32094     32095     32096     32097     32096     32098     32097     32098
     32099     32100     32099     32101     32100     32101     32102     32103
     32102     32104     32103     32104     32105     32106     32105     32107
     32106     32107     32108     32109     32108     32110     32109     32110
     32111     32112     32111     32113     32112     32113     32114     32115
     32114     32116     32115     32116     32117     32118     32117     32119
     32118     32119     32120     32121     32120     32122     32121     32122
     32123     32124     32123     32125     32124     32125     32126     32127
     32126     32128     32127     32128     32129     32130     32129     32131
     32130     32131     32132     32133     32132     32134     32133     32134
     32135     32136     32135     32137     32136     32137     32138     32139
     32138     32140     32139     32140     32141     32142     32141     32143
     32142     32143     32144     32145     32144     32146     32145     32146
     32147     32148     32147     32149     32148     32149     32150     32151
     32150     32152     32151     32152     32153     32154     32153     32155
     32154     32155     32156     32157     32156     32158     32157     32158
     32159     32160     32159     32161     32160     32161     32162     32163
     32162     32164     32163     32164     32165     32166     32165     32167
     32166     32167     32168     32169     32168     32170     32169     32170
     32171     32172     32171     32173     32172     32173     32174     32175
     32174     32176     32175     32176     32177     32178     32177     32179
     32178     32179     32180     32181     32180     32182     32181     32182
     32183     32184     32183     32185     32184     32185     32186     32187
     32186     32188     32187     32188     32189     32190     32189     32191
     32190     32191     32192     32193     32192     32194     32193     32194
     32195     32196     32195     32197     32196     32197     32198     32199
     32198     32200     32199     32200     32201     32202     32201     32203
     32202     32203     32204     32205     32204     32206     32205     32206
     32207     32208     32207     32209     32208     32209     32210     32211
     32210     32212     32211     32212     32213     32214     32213     32215
     32214     32215     32216     32217     32216     32218     32217     32218
     32219     32220     32219     32221     32220     32221     32222     32223
     32222     32224     32223     32224     32225     32226     32225     32227
     32226     32227     32228     32229     32228     32230     32229     32230
     32231     32232     32231     32233     32232     32233     32234     32235
     32234     32236     32235     32236     32237     32238     32237     32239
     32238     32239     32240     32241     32240     32242     32241     32242
     32243     32244     32243     32245     32244     32245     32246     32247
     32246     32248     32247     32248     32249     32250     32249     32251
     32250     32251     32252     32253     32252     32254     32253     32254
     32255     32256     32255     32257     32256     32257     32258     32259
     32258     32260     32259     32260     32261     32262     32261     32263
     32262     32263     32264     32265     32264     32266     32265     32266
     32267     32268     32267     32269     32268     32269     32270     32271
     32270     32272     32271     32272     32273     32274     32273     32275
     32274     32275     32276     32277     32276     32278     32277     32278
     32279     32280     32279     32281     32280     32281     32282     32283
     32282     32284     32283     32284     32285     32286     32285     32287
     32286     32287     32288     32289     32288     32290     32289     32290
     32291     32292     32291     32293     32292     32293     32294     32295
     32294     32296     32295     32296     32297     32298     32297     32299
     32298     32299     32300     32301     32300     32302     32301     32302
     32303     32304     32303     32305     32304     32305     32306     32307
     32306     32308     32307     32308     32309     32310     32309     32311
     32310     32311     32312     32313     32312     32314     32313     32314
     32315     32316     32315     32317     32316     32317     32318     32319
     32318     32320     32319     32320     32321     32322     32321     32323
     32322     32323     32324     32325     32324     32326     32325     32326
     32327     32328     32327     32329     32328     32329     32330     32331
     32330     32332     32331     32332     32333     32334     32333     32335
     32334     32335     32336     32337     32336     32338     32337     32338
     32339     32340     32339     32341     32340     32341     32342     32343
     32342     32344     32343     32344     32345     32346     32345     32347
     32346     32347     32348     32349     32348     32350     32349     32350
     32351     32352     32351     32353     32352     32353     32354     32355
     32354     32356     32355     32356     32357     32358     32357     32359
     32358     32359     32360     32361     32360     32362     32361     32362
     32363     32364     32363     32365     32364     32365     32366     32367
     32366     32368     32367     32368     32369     32370     32369     32371
     32370     32371     32372     32373     32372     32374     32373     32374
     32375     32376     32375     32377     32376     32377     32378     32379
     32378     32380     32379     32380     32381     32382     32381     32383
     32382     32383     32384     32385     32384     32386     32385     32386
     32387     32388     32387     32389     32388     32389     32390     32391
     32390     32392     32391     32392     32393     32394     32393     32395
     32394     32395     32396     32397     32396     32398     32397     32398
     32399     32400     32399     32401     32400     32401     32402     32403
     32402     32404     32403     32404     32405     32406     32405     32407
     32406     32407     32408     32409     32408     32410     32409     32410
     32411     32412     32411     32413     32412     32413     32414     32415
     32414     32416     32415     32416     32417     32418     32417     32419
     32418     32419     32420     32421     32420     32422     32421     32422
     32423     32424     32423     32425     32424     32425     32426     32427
     32426     32428     32427     32428     32429     32430     32429     32431
     32430     32431     32432     32433     32432     32434     32433     32434
     32435     32436     32435     32437     32436     32437     32438     32439
     32438     32440     32439     32440     32441     32442     32441     32443
     32442     32443     32444     32445     32444     32446     32445     32446
     32447     32448     32447     32449     32448     32449     32450     32451
     32450     32452     32451     32452     32453     32454     32453     32455
     32454     32455     32456     32457     32456     32458     32457     32458
     32459     32460     32459     32461     32460     32461     32462     32463
     32462     32464     32463     32464     32465     32466     32465     32467
     32466     32467     32468     32469     32468     32470     32469     32470
     32471     32472     32471     32473     32472     32473     32474     32475
     32474     32476     32475     32476     32477     32478     32477     32479
     32478     32479     32480     32481     32480     32482     32481     32482
     32483     32484     32483     32485     32484     32485     32486     32487
     32486     32488     32487     32488     32489     32490     32489     32491
     32490     32491     32492     32493     32492     32494     32493     32494
     32495     32496     32495     32497     32496     32497     32498     32499
     32498     32500     32499     32500     32501     32502     32501     32503
     32502     32503     32504     32505     32504     32506     32505     32506
     32507     32508     32507     32509     32508     32509     32510     32511
     32510     32512     32511     32512     32513     32514     32513     32515
     32514     32515     32516     32517     32516     32518     32517     32518
     32519     32520     32519     32521     32520     32521     32522     32523
     32522     32524     32523     32524     32525     32526     32525     32527
     32526     32527     32528     32529     32528     32530     32529     32530
     32531     32532     32531     32533     32532     32533     32534     32535
     32534     32536     32535     32536     32537     32538     32537     32539
     32538     32539     32540     32541     32540     32542     32541     32542
     32543     32544     32543     32545     32544     32545     32546     32547
     32546     32548     32547     32548     32549     32550     32549     32551
     32550     32551     32552     32553     32552     32554     32553     32554
     32555     32556     32555     32557     32556     32557     32558     32559
     32558     32560     32559     32560     32561     32562     32561     32563
     32562     32563     32564     32565     32564     32566     32565     32566
     32567     32568     32567     32569     32568     32569     32570     32571
     32570     32572     32571     32572     32573     32574     32573     32575
     32574     32575     32576     32577     32576     32578     32577     32578
     32579     32580     32579     32581     32580     32581     32582     32583
     32582     32584     32583     32584     32585     32586     32585     32587
     32586     32587     32588     32589     32588     32590     32589     32590
     32591     32592     32591     32593     32592     32593     32594     32595
     32594     32596     32595     32596     32597     32598     32597     32599
     32598     32599     32600     32601     32600     32602     32601     32602
     32603     32604     32603     32605     32604     32605     32606     32607
     32606     32608     32607     32608     32609     32610     32609     32611
     32610     32611     32612     32613     32612     32614     32613     32614
     32615     32616     32615     32617     32616     32617     32618     32619
     32618     32620     32619     32620     32621     32622     32621     32623
     32622     32623     32624     32625     32624     32626     32625     32626
     32627     32628     32627     32629     32628     32629     32630     32631
     32630     32632     32631     32632     32633     32634     32633     32635
     32634     32635     32636     32637     32636     32638     32637     32638
     32639     32640     32639     32641     32640     32641     32642     32643
     32642     32644     32643     32644     32645     32646     32645     32647
     32646     32647     32648     32649     32648     32650     32649     32650
     32651     32652     32651     32653     32652     32653     32654     32655
     32654     32656     32655     32656     32657     32658     32657     32659
     32658     32659     32660     32661     32660     32662     32661     32662
     32663     32664     32663     32665     32664     32665     32666     32667
     32666     32668     32667     32668     32669     32670     32669     32671
     32670     32671     32672     32673     32672     32674     32673     32674
     32675     32676     32675     32677     32676     32677     32678     32679
     32678     32680     32679     32680     32681     32682     32681     32683
     32682     32683     32684     32685     32684     32686     32685     32686
     32687     32688     32687     32689     32688     32689     32690     32691
     32690     32692     32691     32692     32693     32694     32693     32695
     32694     32695     32696     32697     32696     32698     32697     32698
     32699     32700     32699     32701     32700     32701     32702     32703
     32702     32704     32703     32704     32705     32706     32705     32707
     32706     32707     32708     32709     32708     32710     32709     32710
     32711     32712     32711     32713     32712     32713     32714     32715
     32714     32716     32715     32716     32717     32718     32717     32719
     32718     32719     32720     32721     32720     32722     32721     32722
     32723     32724     32723     32725     32724     32725     32726     32727
     32726     32728     32727     32728     32729     32730     32729     32731
     32730     32731     32732     32733     32732     32734     32733     32734
     32735     32736     32735     32737     32736     32737     32738     32739
     32738     32740     32739     32740     32741     32742     32741     32743
     32742     32743     32744     32745     32744     32746     32745     32746
     32747     32748     32747     32749     32748     32749     32750     32751
     32750     32752     32751     32752     32753     32754     32753     32755
     32754     32755     32756     32757     32756     32758     32757     32758
     32759     32760     32759     32761     32760     32761     32762     32763
     32762     32764     32763     32764     32765     32766     32765     32767
     32766     32767     32768     32769     32768     32770     32769     32770
     32771     32772     32771     32773     32772     32773     32774     32775
     32774     32776     32775     32776     32777     32778     32777     32779
     32778     32779     32780     32781     32780     32782     32781     32782
     32783     32784     32783     32785     32784     32785     32786     32787
     32786     32788     32787     32788     32789     32790     32789     32791
     32790     32791     32792     32793     32792     32794     32793     32794
     32795     32796     32795     32797     32796     32797     32798     32799
     32798     32800     32799     32800     32801     32802     32801     32803
     32802     32803     32804     32805     32804     32806     32805     32806
     32807     32808     32807     32809     32808     32809     32810     32811
     32810     32812     32811     32812     32813     32814     32813     32815
     32814     32815     32816     32817     32816     32818     32817     32818
     32819     32820     32819     32821     32820     32821     32822     32823
     32822     32824     32823     32824     32825     32826     32825     32827
     32826     32827     32828     32829     32828     32830     32829     32830
     32831     32832     32831     32833     32832     32833     32834     32835
     32834     32836     32835     32836     32837     32838     32837     32839
     32838     32839     32840     32841     32840     32842     32841     32842
     32843     32844     32843     32845     32844     32845     32846     32847
     32846     32848     32847     32848     32849     32850     32849     32851
     32850     32851     32852     32853     32852     32854     32853     32854
     32855     32856     32855     32857     32856     32857     32858     32859
     32858     32860     32859     32860     32861     32862     32861     32863
     32862     32863     32864     32865     32864     32866     32865     32866
     32867     32868     32867     32869     32868     32869     32870     32871
     32870     32872     32871     32872     32873     32874     32873     32875
     32874     32875     32876     32877     32876     32878     32877     32878
     32879     32880     32879     32881     32880     32881     32882     32883
     32882     32884     32883     32884     32885     32886     32885     32887
     32886     32887     32888     32889     32888     32890     32889     32890
     32891     32892     32891     32893     32892     32893     32894     32895
     32894     32896     32895     32896     32897     32898     32897     32899
     32898     32899     32900     32901     32900     32902     32901     32902
     32903     32904     32903     32905     32904     32905     32906     32907
     32906     32908     32907     32908     32909     32910     32909     32911
     32910     32911     32912     32913     32912     32914     32913     32914
     32915     32916     32915     32917     32916     32917     32918     32919
     32918     32920     32919     32920     32921     32922     32921     32923
     32922     32923     32924     32925     32924     32926     32925     32926
     32927     32928     32927     32929     32928     32929     32930     32931
     32930     32932     32931     32932     32933     32934     32933     32935
     32934     32935     32936     32937     32936     32938     32937     32938
     32939     32940     32939     32941     32940     32941     32942     32943
     32942     32944     32943     32944     32945     32946     32945     32947
     32946     32947     32948     32949     32948     32950     32949     32950
     32951     32952     32951     32953     32952     32953     32954     32955
     32954     32956     32955     32956     32957     32958     32957     32959
     32958     32959     32960     32961     32960     32962     32961     32962
     32963     32964     32963     32965     32964     32965     32966     32967
     32966     32968     32967     32968     32969     32970     32969     32971
     32970     32971     32972     32973     32972     32974     32973     32974
     32975     32976     32975     32977     32976     32977     32978     32979
     32978     32980     32979     32980     32981     32982     32981     32983
     32982     32983     32984     32985     32984     32986     32985     32986
     32987     32988     32987     32989     32988     32989     32990     32991
     32990     32992     32991     32992     32993     32994     32993     32995
     32994     32995     32996     32997     32996     32998     32997     32998
     32999     33000     32999     33001     33000     33001     33002     33003
     33002     33004     33003     33004     33005     33006     33005     33007
     33006     33007     33008     33009     33008     33010     33009     33010
     33011     33012     33011     33013     33012     33013     33014     33015
     33014     33016     33015     33016     33017     33018     33017     33019
     33018     33019     33020     33021     33020     33022     33021     33022
     33023     33024     33023     33025     33024     33025     33026     33027
     33026     33028     33027     33028     33029     33030     33029     33031
     33030     33031     33032     33033     33032     33034     33033     33034
     33035     33036     33035     33037     33036     33037     33038     33039
     33038     33040     33039     33040     33041     33042     33041     33043
     33042     33043     33044     33045     33044     33046     33045     33046
     33047     33048     33047     33049     33048     33049     33050     33051
     33050     33052     33051     33052     33053     33054     33053     33055
     33054     33055     33056     33057     33056     33058     33057     33058
     33059     33060     33059     33061     33060     33061     33062     33063
     33062     33064     33063     33064     33065     33066     33065     33067
     33066     33067     33068     33069     33068     33070     33069     33070
     33071     33072     33071     33073     33072     33073     33074     33075
     33074     33076     33075     33076     33077     33078     33077     33079
     33078     33079     33080     33081     33080     33082     33081     33082
     33083     33084     33083     33085     33084     33085     33086     33087
     33086     33088     33087     33088     33089     33090     33089     33091
     33090     33091     33092     33093     33092     33094     33093     33094
     33095     33096     33095     33097     33096     33097     33098     33099
     33098     33100     33099     33100     33101     33102     33101     33103
     33102     33103     33104     33105     33104     33106     33105     33106
     33107     33108     33107     33109     33108     33109     33110     33111
     33110     33112     33111     33112     33113     33114     33113     33115
     33114     33115     33116     33117     33116     33118     33117     33118
     33119     33120     33119     33121     33120     33121     33122     33123
     33122     33124     33123     33124     33125     33126     33125     33127
     33126     33127     33128     33129     33128     33130     33129     33130
     33131     33132     33131     33133     33132     33133     33134     33135
     33134     33136     33135     33136     33137     33138     33137     33139
     33138     33139     33140     33141     33140     33142     33141     33142
     33143     33144     33143     33145     33144     33145     33146     33147
     33146     33148     33147     33148     33149     33150     33149     33151
     33150     33151     33152     33153     33152     33154     33153     33154
     33155     33156     33155     33157     33156     33157     33158     33159
     33158     33160     33159     33160     33161     33162     33161     33163
     33162     33163     33164     33165     33164     33166     33165     33166
     33167     33168     33167     33169     33168     33169     33170     33171
     33170     33172     33171     33172     33173     33174     33173     33175
     33174     33175     33176     33177     33176     33178     33177     33178
     33179     33180     33179     33181     33180     33181     33182     33183
     33182     33184     33183     33184     33185     33186     33185     33187
     33186     33187     33188     33189     33188     33190     33189     33190
     33191     33192     33191     33193     33192     33193     33194     33195
     33194     33196     33195     33196     33197     33198     33197     33199
     33198     33199     33200     33201     33200     33202     33201     33202
     33203     33204     33203     33205     33204     33205     33206     33207
     33206     33208     33207     33208     33209     33210     33209     33211
     33210     33211     33212     33213     33212     33214     33213     33214
     33215     33216     33215     33217     33216     33217     33218     33219
     33218     33220     33219     33220     33221     33222     33221     33223
     33222     33223     33224     33225     33224     33226     33225     33226
     33227     33228     33227     33229     33228     33229     33230     33231
     33230     33232     33231     33232     33233     33234     33233     33235
     33234     33235     33236     33237     33236     33238     33237     33238
     33239     33240     33239     33241     33240     33241     33242     33243
     33242     33244     33243     33244     33245     33246     33245     33247
     33246     33247     33248     33249     33248     33250     33249     33250
     33251     33252     33251     33253     33252     33253     33254     33255
     33254     33256     33255     33256     33257     33258     33257     33259
     33258     33259     33260     33261     33260     33262     33261     33262
     33263     33264     33263     33265     33264     33265     33266     33267
     33266     33268     33267     33268     33269     33270     33269     33271
     33270     33271     33272     33273     33272     33274     33273     33274
     33275     33276     33275     33277     33276     33277     33278     33279
     33278     33280     33279     33280     33281     33282     33281     33283
     33282     33283     33284     33285     33284     33286     33285     33286
     33287     33288     33287     33289     33288     33289     33290     33291
     33290     33292     33291     33292     33293     33294     33293     33295
     33294     33295     33296     33297     33296     33298     33297     33298
     33299     33300     33299     33301     33300     33301     33302     33303
     33302     33304     33303     33304     33305     33306     33305     33307
     33306     33307     33308     33309     33308     33310     33309     33310
     33311     33312     33311     33313     33312     33313     33314     33315
     33314     33316     33315     33316     33317     33318     33317     33319
     33318     33319     33320     33321     33320     33322     33321     33322
     33323     33324     33323     33325     33324     33325     33326     33327
     33326     33328     33327     33328     33329     33330     33329     33331
     33330     33331     33332     33333     33332     33334     33333     33334
     33335     33336     33335     33337     33336     33337     33338     33339
     33338     33340     33339     33340     33341     33342     33341     33343
     33342     33343     33344     33345     33344     33346     33345     33346
     33347     33348     33347     33349     33348     33349     33350     33351
     33350     33352     33351     33352     33353     33354     33353     33355
     33354     33355     33356     33357     33356     33358     33357     33358
     33359     33360     33359     33361     33360     33361     33362     33363
     33362     33364     33363     33364     33365     33366     33365     33367
     33366     33367     33368     33369     33368     33370     33369     33370
     33371     33372     33371     33373     33372     33373     33374     33375
     33374     33376     33375     33376     33377     33378     33377     33379
     33378     33379     33380     33381     33380     33382     33381     33382
     33383     33384     33383     33385     33384     33385     33386     33387
     33386     33388     33387     33388     33389     33390     33389     33391
     33390     33391     33392     33393     33392     33394     33393     33394
     33395     33396     33395     33397     33396     33397     33398     33399
     33398     33400     33399     33400     33401     33402     33401     33403
     33402     33403     33404     33405     33404     33406     33405     33406
     33407     33408     33407     33409     33408     33409     33410     33411
     33410     33412     33411     33412     33413     33414     33413     33415
     33414     33415     33416     33417     33416     33418     33417     33418
     33419     33420     33419     33421     33420     33421     33422     33423
     33422     33424     33423     33424     33425     33426     33425     33427
     33426     33427     33428     33429     33428     33430     33429     33430
     33431     33432     33431     33433     33432     33433     33434     33435
     33434     33436     33435     33436     33437     33438     33437     33439
     33438     33439     33440     33441     33440     33442     33441     33442
     33443     33444     33443     33445     33444     33445     33446     33447
     33446     33448     33447     33448     33449     33450     33449     33451
     33450     33451     33452     33453     33452     33454     33453     33454
     33455     33456     33455     33457     33456     33457     33458     33459
     33458     33460     33459     33460     33461     33462     33461     33463
     33462     33463     33464     33465     33464     33466     33465     33466
     33467     33468     33467     33469     33468     33469     33470     33471
     33470     33472     33471     33472     33473     33474     33473     33475
     33474     33475     33476     33477     33476     33478     33477     33478
     33479     33480     33479     33481     33480     33481     33482     33483
     33482     33484     33483     33484     33485     33486     33485     33487
     33486     33487     33488     33489     33488     33490     33489     33490
     33491     33492     33491     33493     33492     33493     33494     33495
     33494     33496     33495     33496     33497     33498     33497     33499
     33498     33499     33500     33501     33500     33502     33501     33502
     33503     33504     33503     33505     33504     33505     33506     33507
     33506     33508     33507     33508     33509     33510     33509     33511
     33510     33511     33512     33513     33512     33514     33513     33514
     33515     33516     33515     33517     33516     33517     33518     33519
     33518     33520     33519     33520     33521     33522     33521     33523
     33522     33523     33524     33525     33524     33526     33525     33526
     33527     33528     33527     33529     33528     33529     33530     33531
     33530     33532     33531     33532     33533     33534     33533     33535
     33534     33535     33536     33537     33536     33538     33537     33538
     33539     33540     33539     33541     33540     33541     33542     33543
     33542     33544     33543     33544     33545     33546     33545     33547
     33546     33547     33548     33549     33548     33550     33549     33550
     33551     33552     33551     33553     33552     33553     33554     33555
     33554     33556     33555     33556     33557     33558     33557     33559
     33558     33559     33560     33561     33560     33562     33561     33562
     33563     33564     33563     33565     33564     33565     33566     33567
     33566     33568     33567     33568     33569     33570     33569     33571
     33570     33571     33572     33573     33572     33574     33573     33574
     33575     33576     33575     33577     33576     33577     33578     33579
     33578     33580     33579     33580     33581     33582     33581     33583
     33582     33583     33584     33585     33584     33586     33585     33586
     33587     33588     33587     33589     33588     33589     33590     33591
     33590     33592     33591     33592     33593     33594     33593     33595
     33594     33595     33596     33597     33596     33598     33597     33598
     33599     33600     33599     33601     33600     33601     33602     33603
     33602     33604     33603     33604     33605     33606     33605     33607
     33606     33607     33608     33609     33608     33610     33609     33610
     33611     33612     33611     33613     33612     33613     33614     33615
     33614     33616     33615     33616     33617     33618     33617     33619
     33618     33619     33620     33621     33620     33622     33621     33622
     33623     33624     33623     33625     33624     33625     33626     33627
     33626     33628     33627     33628     33629     33630     33629     33631
     33630     33631     33632     33633     33632     33634     33633     33634
     33635     33636     33635     33637     33636     33637     33638     33639
     33638     33640     33639     33640     33641     33642     33641     33643
     33642     33643     33644     33645     33644     33646     33645     33646
     33647     33648     33647     33649     33648     33649     33650     33651
     33650     33652     33651     33652     33653     33654     33653     33655
     33654     33655     33656     33657     33656     33658     33657     33658
     33659     33660     33659     33661     33660     33661     33662     33663
     33662     33664     33663     33664     33665     33666     33665     33667
     33666     33667     33668     33669     33668     33670     33669     33670
     33671     33672     33671     33673     33672     33673     33674     33675
     33674     33676     33675     33676     33677     33678     33677     33679
     33678     33679     33680     33681     33680     33682     33681     33682
     33683     33684     33683     33685     33684     33685     33686     33687
     33686     33688     33687     33688     33689     33690     33689     33691
     33690     33691     33692     33693     33692     33694     33693     33694
     33695     33696     33695     33697     33696     33697     33698     33699
     33698     33700     33699     33700     33701     33702     33701     33703
     33702     33703     33704     33705     33704     33706     33705     33706
     33707     33708     33707     33709     33708     33709     33710     33711
     33710     33712     33711     33712     33713     33714     33713     33715
     33714     33715     33716     33717     33716     33718     33717     33718
     33719     33720     33719     33721     33720     33721     33722     33723
     33722     33724     33723     33724     33725     33726     33725     33727
     33726     33727     33728     33729     33728     33730     33729     33730
     33731     33732     33731     33733     33732     33733     33734     33735
     33734     33736     33735     33736     33737     33738     33737     33739
     33738     33739     33740     33741     33740     33742     33741     33742
     33743     33744     33743     33745     33744     33745     33746     33747
     33746     33748     33747     33748     33749     33750     33749     33751
     33750     33751     33752     33753     33752     33754     33753     33754
     33755     33756     33755     33757     33756     33757     33758     33759
     33758     33760     33759     33760     33761     33762     33761     33763
     33762     33763     33764     33765     33764     33766     33765     33766
     33767     33768     33767     33769     33768     33769     33770     33771
     33770     33772     33771     33772     33773     33774     33773     33775
     33774     33775     33776     33777     33776     33778     33777     33778
     33779     33780     33779     33781     33780     33781     33782     33783
     33782     33784     33783     33784     33785     33786     33785     33787
     33786     33787     33788     33789     33788     33790     33789     33790
     33791     33792     33791     33793     33792     33793     33794     33795
     33794     33796     33795     33796     33797     33798     33797     33799
     33798     33799     33800     33801     33800     33802     33801     33802
     33803     33804     33803     33805     33804     33805     33806     33807
     33806     33808     33807     33808     33809     33810     33809     33811
     33810     33811     33812     33813     33812     33814     33813     33814
     33815     33816     33815     33817     33816     33817     33818     33819
     33818     33820     33819     33820     33821     33822     33821     33823
     33822     33823     33824     33825     33824     33826     33825     33826
     33827     33828     33827     33829     33828     33829     33830     33831
     33830     33832     33831     33832     33833     33834     33833     33835
     33834     33835     33836     33837     33836     33838     33837     33838
     33839     33840     33839     33841     33840     33841     33842     33843
     33842     33844     33843     33844     33845     33846     33845     33847
     33846     33847     33848     33849     33848     33850     33849     33850
     33851     33852     33851     33853     33852     33853     33854     33855
     33854     33856     33855     33856     33857     33858     33857     33859
     33858     33859     33860     33861     33860     33862     33861     33862
     33863     33864     33863     33865     33864     33865     33866     33867
     33866     33868     33867     33868     33869     33870     33869     33871
     33870     33871     33872     33873     33872     33874     33873     33874
     33875     33876     33875     33877     33876     33877     33878     33879
     33878     33880     33879     33880     33881     33882     33881     33883
     33882     33883     33884     33885     33884     33886     33885     33886
     33887     33888     33887     33889     33888     33889     33890     33891
     33890     33892     33891     33892     33893     33894     33893     33895
     33894     33895     33896     33897     33896     33898     33897     33898
     33899     33900     33899     33901     33900     33901     33902     33903
     33902     33904     33903     33904     33905     33906     33905     33907
     33906     33907     33908     33909     33908     33910     33909     33910
     33911     33912     33911     33913     33912     33913     33914     33915
     33914     33916     33915     33916     33917     33918     33917     33919
     33918     33919     33920     33921     33920     33922     33921     33922
     33923     33924     33923     33925     33924     33925     33926     33927
     33926     33928     33927     33928     33929     33930     33929     33931
     33930     33931     33932     33933     33932     33934     33933     33934
     33935     33936     33935     33937     33936     33937     33938     33939
     33938     33940     33939     33940     33941     33942     33941     33943
     33942     33943     33944     33945     33944     33946     33945     33946
     33947     33948     33947     33949     33948     33949     33950     33951
     33950     33952     33951     33952     33953     33954     33953     33955
     33954     33955     33956     33957     33956     33958     33957     33958
     33959     33960     33959     33961     33960     33961     33962     33963
     33962     33964     33963     33964     33965     33966     33965     33967
     33966     33967     33968     33969     33968     33970     33969     33970
     33971     33972     33971     33973     33972     33973     33974     33975
     33974     33976     33975     33976     33977     33978     33977     33979
     33978     33979     33980     33981     33980     33982     33981     33982
     33983     33984     33983     33985     33984     33985     33986     33987
     33986     33988     33987     33988     33989     33990     33989     33991
     33990     33991     33992     33993     33992     33994     33993     33994
     33995     33996     33995     33997     33996     33997     33998     33999
     33998     34000     33999     34000     34001     34002     34001     34003
     34002     34003     34004     34005     34004     34006     34005     34006
     34007     34008     34007     34009     34008     34009     34010     34011
     34010     34012     34011     34012     34013     34014     34013     34015
     34014     34015     34016     34017     34016     34018     34017     34018
     34019     34020     34019     34021     34020     34021     34022     34023
     34022     34024     34023     34024     34025     34026     34025     34027
     34026     34027     34028     34029     34028     34030     34029     34030
     34031     34032     34031     34033     34032     34033     34034     34035
     34034     34036     34035     34036     34037     34038     34037     34039
     34038     34039     34040     34041     34040     34042     34041     34042
     34043     34044     34043     34045     34044     34045     34046     34047
     34046     34048     34047     34048     34049     34050     34049     34051
     34050     34051     34052     34053     34052     34054     34053     34054
     34055     34056     34055     34057     34056     34057     34058     34059
     34058     34060     34059     34060     34061     34062     34061     34063
     34062     34063     34064     34065     34064     34066     34065     34066
     34067     34068     34067     34069     34068     34069     34070     34071
     34070     34072     34071     34072     34073     34074     34073     34075
     34074     34075     34076     34077     34076     34078     34077     34078
     34079     34080     34079     34081     34080     34081     34082     34083
     34082     34084     34083     34084     34085     34086     34085     34087
     34086     34087     34088     34089     34088     34090     34089     34090
     34091     34092     34091     34093     34092     34093     34094     34095
     34094     34096     34095     34096     34097     34098     34097     34099
     34098     34099     34100     34101     34100     34102     34101     34102
     34103     34104     34103     34105     34104     34105     34106     34107
     34106     34108     34107     34108     34109     34110     34109     34111
     34110     34111     34112     34113     34112     34114     34113     34114
     34115     34116     34115     34117     34116     34117     34118     34119
     34118     34120     34119     34120     34121     34122     34121     34123
     34122     34123     34124     34125     34124     34126     34125     34126
     34127     34128     34127     34129     34128     34129     34130     34131
     34130     34132     34131     34132     34133     34134     34133     34135
     34134     34135     34136     34137     34136     34138     34137     34138
     34139     34140     34139     34141     34140     34141     34142     34143
     34142     34144     34143     34144     34145     34146     34145     34147
     34146     34147     34148     34149     34148     34150     34149     34150
     34151     34152     34151     34153     34152     34153     34154     34155
     34154     34156     34155     34156     34157     34158     34157     34159
     34158     34159     34160     34161     34160     34162     34161     34162
     34163     34164     34163     34165     34164     34165     34166     34167
     34166     34168     34167     34168     34169     34170     34169     34171
     34170     34171     34172     34173     34172     34174     34173     34174
     34175     34176     34175     34177     34176     34177     34178     34179
     34178     34180     34179     34180     34181     34182     34181     34183
     34182     34183     34184     34185     34184     34186     34185     34186
     34187     34188     34187     34189     34188     34189     34190     34191
     34190     34192     34191     34192     34193     34194     34193     34195
     34194     34195     34196     34197     34196     34198     34197     34198
     34199     34200     34199     34201     34200     34201     34202     34203
     34202     34204     34203     34204     34205     34206     34205     34207
     34206     34207     34208     34209     34208     34210     34209     34210
     34211     34212     34211     34213     34212     34213     34214     34215
     34214     34216     34215     34216     34217     34218     34217     34219
     34218     34219     34220     34221     34220     34222     34221     34222
     34223     34224     34223     34225     34224     34225     34226     34227
     34226     34228     34227     34228     34229     34230     34229     34231
     34230     34231     34232     34233     34232     34234     34233     34234
     34235     34236     34235     34237     34236     34237     34238     34239
     34238     34240     34239     34240     34241     34242     34241     34243
     34242     34243     34244     34245     34244     34246     34245     34246
     34247     34248     34247     34249     34248     34249     34250     34251
     34250     34252     34251     34252     34253     34254     34253     34255
     34254     34255     34256     34257     34256     34258     34257     34258
     34259     34260     34259     34261     34260     34261     34262     34263
     34262     34264     34263     34264     34265     34266     34265     34267
     34266     34267     34268     34269     34268     34270     34269     34270
     34271     34272     34271     34273     34272     34273     34274     34275
     34274     34276     34275     34276     34277     34278     34277     34279
     34278     34279     34280     34281     34280     34282     34281     34282
     34283     34284     34283     34285     34284     34285     34286     34287
     34286     34288     34287     34288     34289     34290     34289     34291
     34290     34291     34292     34293     34292     34294     34293     34294
     34295     34296     34295     34297     34296     34297     34298     34299
     34298     34300     34299     34300     34301     34302     34301     34303
     34302     34303     34304     34305     34304     34306     34305     34306
     34307     34308     34307     34309     34308     34309     34310     34311
     34310     34312     34311     34312     34313     34314     34313     34315
     34314     34315     34316     34317     34316     34318     34317     34318
     34319     34320     34319     34321     34320     34321     34322     34323
     34322     34324     34323     34324     34325     34326     34325     34327
     34326     34327     34328     34329     34328     34330     34329     34330
     34331     34332     34331     34333     34332     34333     34334     34335
     34334     34336     34335     34336     34337     34338     34337     34339
     34338     34339     34340     34341     34340     34342     34341     34342
     34343     34344     34343     34345     34344     34345     34346     34347
     34346     34348     34347     34348     34349     34350     34349     34351
     34350     34351     34352     34353     34352     34354     34353     34354
     34355     34356     34355     34357     34356     34357     34358     34359
     34358     34360     34359     34360     34361     34362     34361     34363
     34362     34363     34364     34365     34364     34366     34365     34366
     34367     34368     34367     34369     34368     34369     34370     34371
     34370     34372     34371     34372     34373     34374     34373     34375
     34374     34375     34376     34377     34376     34378     34377     34378
     34379     34380     34379     34381     34380     34381     34382     34383
     34382     34384     34383     34384     34385     34386     34385     34387
     34386     34387     34388     34389     34388     34390     34389     34390
     34391     34392     34391     34393     34392     34393     34394     34395
     34394     34396     34395     34396     34397     34398     34397     34399
     34398     34399     34400     34401     34400     34402     34401     34402
     34403     34404     34403     34405     34404     34405     34406     34407
     34406     34408     34407     34408     34409     34410     34409     34411
     34410     34411     34412     34413     34412     34414     34413     34414
     34415     34416     34415     34417     34416     34417     34418     34419
     34418     34420     34419     34420     34421     34422     34421     34423
     34422     34423     34424     34425     34424     34426     34425     34426
     34427     34428     34427     34429     34428     34429     34430     34431
     34430     34432     34431     34432     34433     34434     34433     34435
     34434     34435     34436     34437     34436     34438     34437     34438
     34439     34440     34439     34441     34440     34441     34442     34443
     34442     34444     34443     34444     34445     34446     34445     34447
     34446     34447     34448     34449     34448     34450     34449     34450
     34451     34452     34451     34453     34452     34453     34454     34455
     34454     34456     34455     34456     34457     34458     34457     34459
     34458     34459     34460     34461     34460     34462     34461     34462
     34463     34464     34463     34465     34464     34465     34466     34467
     34466     34468     34467     34468     34469     34470     34469     34471
     34470     34471     34472     34473     34472     34474     34473     34474
     34475     34476     34475     34477     34476     34477     34478     34479
     34478     34480     34479     34480     34481     34482     34481     34483
     34482     34483     34484     34485     34484     34486     34485     34486
     34487     34488     34487     34489     34488     34489     34490     34491
     34490     34492     34491     34492     34493     34494     34493     34495
     34494     34495     34496     34497     34496     34498     34497     34498
     34499     34500     34499     34501     34500     34501     34502     34503
     34502     34504     34503     34504     34505     34506     34505     34507
     34506     34507     34508     34509     34508     34510     34509     34510
     34511     34512     34511     34513     34512     34513     34514     34515
     34514     34516     34515     34516     34517     34518     34517     34519
     34518     34519     34520     34521     34520     34522     34521     34522
     34523     34524     34523     34525     34524     34525     34526     34527
     34526     34528     34527     34528     34529     34530     34529     34531
     34530     34531     34532     34533     34532     34534     34533     34534
     34535     34536     34535     34537     34536     34537     34538     34539
     34538     34540     34539     34540     34541     34542     34541     34543
     34542     34543     34544     34545     34544     34546     34545     34546
     34547     34548     34547     34549     34548     34549     34550     34551
     34550     34552     34551     34552     34553     34554     34553     34555
     34554     34555     34556     34557     34556     34558     34557     34558
     34559     34560     34559     34561     34560     34561     34562     34563
     34562     34564     34563     34564     34565     34566     34565     34567
     34566     34567     34568     34569     34568     34570     34569     34570
     34571     34572     34571     34573     34572     34573     34574     34575
     34574     34576     34575     34576     34577     34578     34577     34579
     34578     34579     34580     34581     34580     34582     34581     34582
     34583     34584     34583     34585     34584     34585     34586     34587
     34586     34588     34587     34588     34589     34590     34589     34591
     34590     34591     34592     34593     34592     34594     34593     34594
     34595     34596     34595     34597     34596     34597     34598     34599
     34598     34600     34599     34600     34601     34602     34601     34603
     34602     34603     34604     34605     34604     34606     34605     34606
     34607     34608     34607     34609     34608     34609     34610     34611
     34610     34612     34611     34612     34613     34614     34613     34615
     34614     34615     34616     34617     34616     34618     34617     34618
     34619     34620     34619     34621     34620     34621     34622     34623
     34622     34624     34623     34624     34625     34626     34625     34627
     34626     34627     34628     34629     34628     34630     34629     34630
     34631     34632     34631     34633     34632     34633     34634     34635
     34634     34636     34635     34636     34637     34638     34637     34639
     34638     34639     34640     34641     34640     34642     34641     34642
     34643     34644     34643     34645     34644     34645     34646     34647
     34646     34648     34647     34648     34649     34650     34649     34651
     34650     34651     34652     34653     34652     34654     34653     34654
     34655     34656     34655     34657     34656     34657     34658     34659
     34658     34660     34659     34660     34661     34662     34661     34663
     34662     34663     34664     34665     34664     34666     34665     34666
     34667     34668     34667     34669     34668     34669     34670     34671
     34670     34672     34671     34672     34673     34674     34673     34675
     34674     34675     34676     34677     34676     34678     34677     34678
     34679     34680     34679     34681     34680     34681     34682     34683
     34682     34684     34683     34684     34685     34686     34685     34687
     34686     34687     34688     34689     34688     34690     34689     34690
     34691     34692     34691     34693     34692     34693     34694     34695
     34694     34696     34695     34696     34697     34698     34697     34699
     34698     34699     34700     34701     34700     34702     34701     34702
     34703     34704     34703     34705     34704     34705     34706     34707
     34706     34708     34707     34708     34709     34710     34709     34711
     34710     34711     34712     34713     34712     34714     34713     34714
     34715     34716     34715     34717     34716     34717     34718     34719
     34718     34720     34719     34720     34721     34722     34721     34723
     34722     34723     34724     34725     34724     34726     34725     34726
     34727     34728     34727     34729     34728     34729     34730     34731
     34730     34732     34731     34732     34733     34734     34733     34735
     34734     34735     34736     34737     34736     34738     34737     34738
     34739     34740     34739     34741     34740     34741     34742     34743
     34742     34744     34743     34744     34745     34746     34745     34747
     34746     34747     34748     34749     34748     34750     34749     34750
     34751     34752     34751     34753     34752     34753     34754     34755
     34754     34756     34755     34756     34757     34758     34757     34759
     34758     34759     34760     34761     34760     34762     34761     34762
     34763     34764     34763     34765     34764     34765     34766     34767
     34766     34768     34767     34768     34769     34770     34769     34771
     34770     34771     34772     34773     34772     34774     34773     34774
     34775     34776     34775     34777     34776     34777     34778     34779
     34778     34780     34779     34780     34781     34782     34781     34783
     34782     34783     34784     34785     34784     34786     34785     34786
     34787     34788     34787     34789     34788     34789     34790     34791
     34790     34792     34791     34792     34793     34794     34793     34795
     34794     34795     34796     34797     34796     34798     34797     34798
     34799     34800     34799     34801     34800     34801     34802     34803
     34802     34804     34803     34804     34805     34806     34805     34807
     34806     34807     34808     34809     34808     34810     34809     34810
     34811     34812     34811     34813     34812     34813     34814     34815
     34814     34816     34815     34816     34817     34818     34817     34819
     34818     34819     34820     34821     34820     34822     34821     34822
     34823     34824     34823     34825     34824     34825     34826     34827
     34826     34828     34827     34828     34829     34830     34829     34831
     34830     34831     34832     34833     34832     34834     34833     34834
     34835     34836     34835     34837     34836     34837     34838     34839
     34838     34840     34839     34840     34841     34842     34841     34843
     34842     34843     34844     34845     34844     34846     34845     34846
     34847     34848     34847     34849     34848     34849     34850     34851
     34850     34852     34851     34852     34853     34854     34853     34855
     34854     34855     34856     34857     34856     34858     34857     34858
     34859     34860     34859     34861     34860     34861     34862     34863
     34862     34864     34863     34864     34865     34866     34865     34867
     34866     34867     34868     34869     34868     34870     34869     34870
     34871     34872     34871     34873     34872     34873     34874     34875
     34874     34876     34875     34876     34877     34878     34877     34879
     34878     34879     34880     34881     34880     34882     34881     34882
     34883     34884     34883     34885     34884     34885     34886     34887
     34886     34888     34887     34888     34889     34890     34889     34891
     34890     34891     34892     34893     34892     34894     34893     34894
     34895     34896     34895     34897     34896     34897     34898     34899
     34898     34900     34899     34900     34901     34902     34901     34903
     34902     34903     34904     34905     34904     34906     34905     34906
     34907     34908     34907     34909     34908     34909     34910     34911
     34910     34912     34911     34912     34913     34914     34913     34915
     34914     34915     34916     34917     34916     34918     34917     34918
     34919     34920     34919     34921     34920     34921     34922     34923
     34922     34924     34923     34924     34925     34926     34925     34927
     34926     34927     34928     34929     34928     34930     34929     34930
     34931     34932     34931     34933     34932     34933     34934     34935
     34934     34936     34935     34936     34937     34938     34937     34939
     34938     34939     34940     34941     34940     34942     34941     34942
     34943     34944     34943     34945     34944     34945     34946     34947
     34946     34948     34947     34948     34949     34950     34949     34951
     34950     34951     34952     34953     34952     34954     34953     34954
     34955     34956     34955     34957     34956     34957     34958     34959
     34958     34960     34959     34960     34961     34962     34961     34963
     34962     34963     34964     34965     34964     34966     34965     34966
     34967     34968     34967     34969     34968     34969     34970     34971
     34970     34972     34971     34972     34973     34974     34973     34975
     34974     34975     34976     34977     34976     34978     34977     34978
     34979     34980     34979     34981     34980     34981     34982     34983
     34982     34984     34983     34984     34985     34986     34985     34987
     34986     34987     34988     34989     34988     34990     34989     34990
     34991     34992     34991     34993     34992     34993     34994     34995
     34994     34996     34995     34996     34997     34998     34997     34999
     34998     34999     35000     35001     35000     35002     35001     35002
     35003     35004     35003     35005     35004     35005     35006     35007
     35006     35008     35007     35008     35009     35010     35009     35011
     35010     35011     35012     35013     35012     35014     35013     35014
     35015     35016     35015     35017     35016     35017     35018     35019
     35018     35020     35019     35020     35021     35022     35021     35023
     35022     35023     35024     35025     35024     35026     35025     35026
     35027     35028     35027     35029     35028     35029     35030     35031
     35030     35032     35031     35032     35033     35034     35033     35035
     35034     35035     35036     35037     35036     35038     35037     35038
     35039     35040     35039     35041     35040     35041     35042     35043
     35042     35044     35043     35044     35045     35046     35045     35047
     35046     35047     35048     35049     35048     35050     35049     35050
     35051     35052     35051     35053     35052     35053     35054     35055
     35054     35056     35055     35056     35057     35058     35057     35059
     35058     35059     35060     35061     35060     35062     35061     35062
     35063     35064     35063     35065     35064     35065     35066     35067
     35066     35068     35067     35068     35069     35070     35069     35071
     35070     35071     35072     35073     35072     35074     35073     35074
     35075     35076     35075     35077     35076     35077     35078     35079
     35078     35080     35079     35080     35081     35082     35081     35083
     35082     35083     35084     35085     35084     35086     35085     35086
     35087     35088     35087     35089     35088     35089     35090     35091
     35090     35092     35091     35092     35093     35094     35093     35095
     35094     35095     35096     35097     35096     35098     35097     35098
     35099     35100     35099     35101     35100     35101     35102     35103
     35102     35104     35103     35104     35105     35106     35105     35107
     35106     35107     35108     35109     35108     35110     35109     35110
     35111     35112     35111     35113     35112     35113     35114     35115
     35114     35116     35115     35116     35117     35118     35117     35119
     35118     35119     35120     35121     35120     35122     35121     35122
     35123     35124     35123     35125     35124     35125     35126     35127
     35126     35128     35127     35128     35129     35130     35129     35131
     35130     35131     35132     35133     35132     35134     35133     35134
     35135     35136     35135     35137     35136     35137     35138     35139
     35138     35140     35139     35140     35141     35142     35141     35143
     35142     35143     35144     35145     35144     35146     35145     35146
     35147     35148     35147     35149     35148     35149     35150     35151
     35150     35152     35151     35152     35153     35154     35153     35155
     35154     35155     35156     35157     35156     35158     35157     35158
     35159     35160     35159     35161     35160     35161     35162     35163
     35162     35164     35163     35164     35165     35166     35165     35167
     35166     35167     35168     35169     35168     35170     35169     35170
     35171     35172     35171     35173     35172     35173     35174     35175
     35174     35176     35175     35176     35177     35178     35177     35179
     35178     35179     35180     35181     35180     35182     35181     35182
     35183     35184     35183     35185     35184     35185     35186     35187
     35186     35188     35187     35188     35189     35190     35189     35191
     35190     35191     35192     35193     35192     35194     35193     35194
     35195     35196     35195     35197     35196     35197     35198     35199
     35198     35200     35199     35200     35201     35202     35201     35203
     35202     35203     35204     35205     35204     35206     35205     35206
     35207     35208     35207     35209     35208     35209     35210     35211
     35210     35212     35211     35212     35213     35214     35213     35215
     35214     35215     35216     35217     35216     35218     35217     35218
     35219     35220     35219     35221     35220     35221     35222     35223
     35222     35224     35223     35224     35225     35226     35225     35227
     35226     35227     35228     35229     35228     35230     35229     35230
     35231     35232     35231     35233     35232     35233     35234     35235
     35234     35236     35235     35236     35237     35238     35237     35239
     35238     35239     35240     35241     35240     35242     35241     35242
     35243     35244     35243     35245     35244     35245     35246     35247
     35246     35248     35247     35248     35249     35250     35249     35251
     35250     35251     35252     35253     35252     35254     35253     35254
     35255     35256     35255     35257     35256     35257     35258     35259
     35258     35260     35259     35260     35261     35262     35261     35263
     35262     35263     35264     35265     35264     35266     35265     35266
     35267     35268     35267     35269     35268     35269     35270     35271
     35270     35272     35271     35272     35273     35274     35273     35275
     35274     35275     35276     35277     35276     35278     35277     35278
     35279     35280     35279     35281     35280     35281     35282     35283
     35282     35284     35283     35284     35285     35286     35285     35287
     35286     35287     35288     35289     35288     35290     35289     35290
     35291     35292     35291     35293     35292     35293     35294     35295
     35294     35296     35295     35296     35297     35298     35297     35299
     35298     35299     35300     35301     35300     35302     35301     35302
     35303     35304     35303     35305     35304     35305     35306     35307
     35306     35308     35307     35308     35309     35310     35309     35311
     35310     35311     35312     35313     35312     35314     35313     35314
     35315     35316     35315     35317     35316     35317     35318     35319
     35318     35320     35319     35320     35321     35322     35321     35323
     35322     35323     35324     35325     35324     35326     35325     35326
     35327     35328     35327     35329     35328     35329     35330     35331
     35330     35332     35331     35332     35333     35334     35333     35335
     35334     35335     35336     35337     35336     35338     35337     35338
     35339     35340     35339     35341     35340     35341     35342     35343
     35342     35344     35343     35344     35345     35346     35345     35347
     35346     35347     35348     35349     35348     35350     35349     35350
     35351     35352     35351     35353     35352     35353     35354     35355
     35354     35356     35355     35356     35357     35358     35357     35359
     35358     35359     35360     35361     35360     35362     35361     35362
     35363     35364     35363     35365     35364     35365     35366     35367
     35366     35368     35367     35368     35369     35370     35369     35371
     35370     35371     35372     35373     35372     35374     35373     35374
     35375     35376     35375     35377     35376     35377     35378     35379
     35378     35380     35379     35380     35381     35382     35381     35383
     35382     35383     35384     35385     35384     35386     35385     35386
     35387     35388     35387     35389     35388     35389     35390     35391
     35390     35392     35391     35392     35393     35394     35393     35395
     35394     35395     35396     35397     35396     35398     35397     35398
     35399     35400     35399     35401     35400     35401     35402     35403
     35402     35404     35403     35404     35405     35406     35405     35407
     35406     35407     35408     35409     35408     35410     35409     35410
     35411     35412     35411     35413     35412     35413     35414     35415
     35414     35416     35415     35416     35417     35418     35417     35419
     35418     35419     35420     35421     35420     35422     35421     35422
     35423     35424     35423     35425     35424     35425     35426     35427
     35426     35428     35427     35428     35429     35430     35429     35431
     35430     35431     35432     35433     35432     35434     35433     35434
     35435     35436     35435     35437     35436     35437     35438     35439
     35438     35440     35439     35440     35441     35442     35441     35443
     35442     35443     35444     35445     35444     35446     35445     35446
     35447     35448     35447     35449     35448     35449     35450     35451
     35450     35452     35451     35452     35453     35454     35453     35455
     35454     35455     35456     35457     35456     35458     35457     35458
     35459     35460     35459     35461     35460     35461     35462     35463
     35462     35464     35463     35464     35465     35466     35465     35467
     35466     35467     35468     35469     35468     35470     35469     35470
     35471     35472     35471     35473     35472     35473     35474     35475
     35474     35476     35475     35476     35477     35478     35477     35479
     35478     35479     35480     35481     35480     35482     35481     35482
     35483     35484     35483     35485     35484     35485     35486     35487
     35486     35488     35487     35488     35489     35490     35489     35491
     35490     35491     35492     35493     35492     35494     35493     35494
     35495     35496     35495     35497     35496     35497     35498     35499
     35498     35500     35499     35500     35501     35502     35501     35503
     35502     35503     35504     35505     35504     35506     35505     35506
     35507     35508     35507     35509     35508     35509     35510     35511
     35510     35512     35511     35512     35513     35514     35513     35515
     35514     35515     35516     35517     35516     35518     35517     35518
     35519     35520     35519     35521     35520     35521     35522     35523
     35522     35524     35523     35524     35525     35526     35525     35527
     35526     35527     35528     35529     35528     35530     35529     35530
     35531     35532     35531     35533     35532     35533     35534     35535
     35534     35536     35535     35536     35537     35538     35537     35539
     35538     35539     35540     35541     35540     35542     35541     35542
     35543     35544     35543     35545     35544     35545     35546     35547
     35546     35548     35547     35548     35549     35550     35549     35551
     35550     35551     35552     35553     35552     35554     35553     35554
     35555     35556     35555     35557     35556     35557     35558     35559
     35558     35560     35559     35560     35561     35562     35561     35563
     35562     35563     35564     35565     35564     35566     35565     35566
     35567     35568     35567     35569     35568     35569     35570     35571
     35570     35572     35571     35572     35573     35574     35573     35575
     35574     35575     35576     35577     35576     35578     35577     35578
     35579     35580     35579     35581     35580     35581     35582     35583
     35582     35584     35583     35584     35585     35586     35585     35587
     35586     35587     35588     35589     35588     35590     35589     35590
     35591     35592     35591     35593     35592     35593     35594     35595
     35594     35596     35595     35596     35597     35598     35597     35599
     35598     35599     35600     35601     35600     35602     35601     35602
     35603     35604     35603     35605     35604     35605     35606     35607
     35606     35608     35607     35608     35609     35610     35609     35611
     35610     35611     35612     35613     35612     35614     35613     35614
     35615     35616     35615     35617     35616     35617     35618     35619
     35618     35620     35619     35620     35621     35622     35621     35623
     35622     35623     35624     35625     35624     35626     35625     35626
     35627     35628     35627     35629     35628     35629     35630     35631
     35630     35632     35631     35632     35633     35634     35633     35635
     35634     35635     35636     35637     35636     35638     35637     35638
     35639     35640     35639     35641     35640     35641     35642     35643
     35642     35644     35643     35644     35645     35646     35645     35647
     35646     35647     35648     35649     35648     35650     35649     35650
     35651     35652     35651     35653     35652     35653     35654     35655
     35654     35656     35655     35656     35657     35658     35657     35659
     35658     35659     35660     35661     35660     35662     35661     35662
     35663     35664     35663     35665     35664     35665     35666     35667
     35666     35668     35667     35668     35669     35670     35669     35671
     35670     35671     35672     35673     35672     35674     35673     35674
     35675     35676     35675     35677     35676     35677     35678     35679
     35678     35680     35679     35680     35681     35682     35681     35683
     35682     35683     35684     35685     35684     35686     35685     35686
     35687     35688     35687     35689     35688     35689     35690     35691
     35690     35692     35691     35692     35693     35694     35693     35695
     35694     35695     35696     35697     35696     35698     35697     35698
     35699     35700     35699     35701     35700     35701     35702     35703
     35702     35704     35703     35704     35705     35706     35705     35707
     35706     35707     35708     35709     35708     35710     35709     35710
     35711     35712     35711     35713     35712     35713     35714     35715
     35714     35716     35715     35716     35717     35718     35717     35719
     35718     35719     35720     35721     35720     35722     35721     35722
     35723     35724     35723     35725     35724     35725     35726     35727
     35726     35728     35727     35728     35729     35730     35729     35731
     35730     35731     35732     35733     35732     35734     35733     35734
     35735     35736     35735     35737     35736     35737     35738     35739
     35738     35740     35739     35740     35741     35742     35741     35743
     35742     35743     35744     35745     35744     35746     35745     35746
     35747     35748     35747     35749     35748     35749     35750     35751
     35750     35752     35751     35752     35753     35754     35753     35755
     35754     35755     35756     35757     35756     35758     35757     35758
     35759     35760     35759     35761     35760     35761     35762     35763
     35762     35764     35763     35764     35765     35766     35765     35767
     35766     35767     35768     35769     35768     35770     35769     35770
     35771     35772     35771     35773     35772     35773     35774     35775
     35774     35776     35775     35776     35777     35778     35777     35779
     35778     35779     35780     35781     35780     35782     35781     35782
     35783     35784     35783     35785     35784     35785     35786     35787
     35786     35788     35787     35788     35789     35790     35789     35791
     35790     35791     35792     35793     35792     35794     35793     35794
     35795     35796     35795     35797     35796     35797     35798     35799
     35798     35800     35799     35800     35801     35802     35801     35803
     35802     35803     35804     35805     35804     35806     35805     35806
     35807     35808     35807     35809     35808     35809     35810     35811
     35810     35812     35811     35812     35813     35814     35813     35815
     35814     35815     35816     35817     35816     35818     35817     35818
     35819     35820     35819     35821     35820     35821     35822     35823
     35822     35824     35823     35824     35825     35826     35825     35827
     35826     35827     35828     35829     35828     35830     35829     35830
     35831     35832     35831     35833     35832     35833     35834     35835
     35834     35836     35835     35836     35837     35838     35837     35839
     35838     35839     35840     35841     35840     35842     35841     35842
     35843     35844     35843     35845     35844     35845     35846     35847
     35846     35848     35847     35848     35849     35850     35849     35851
     35850     35851     35852     35853     35852     35854     35853     35854
     35855     35856     35855     35857     35856     35857     35858     35859
     35858     35860     35859     35860     35861     35862     35861     35863
     35862     35863     35864     35865     35864     35866     35865     35866
     35867     35868     35867     35869     35868     35869     35870     35871
     35870     35872     35871     35872     35873     35874     35873     35875
     35874     35875     35876     35877     35876     35878     35877     35878
     35879     35880     35879     35881     35880     35881     35882     35883
     35882     35884     35883     35884     35885     35886     35885     35887
     35886     35887     35888     35889     35888     35890     35889     35890
     35891     35892     35891     35893     35892     35893     35894     35895
     35894     35896     35895     35896     35897     35898     35897     35899
     35898     35899     35900     35901     35900     35902     35901     35902
     35903     35904     35903     35905     35904     35905     35906     35907
     35906     35908     35907     35908     35909     35910     35909     35911
     35910     35911     35912     35913     35912     35914     35913     35914
     35915     35916     35915     35917     35916     35917     35918     35919
     35918     35920     35919     35920     35921     35922     35921     35923
     35922     35923     35924     35925     35924     35926     35925     35926
     35927     35928     35927     35929     35928     35929     35930     35931
     35930     35932     35931     35932     35933     35934     35933     35935
     35934     35935     35936     35937     35936     35938     35937     35938
     35939     35940     35939     35941     35940     35941     35942     35943
     35942     35944     35943     35944     35945     35946     35945     35947
     35946     35947     35948     35949     35948     35950     35949     35950
     35951     35952     35951     35953     35952     35953     35954     35955
     35954     35956     35955     35956     35957     35958     35957     35959
     35958     35959     35960     35961     35960     35962     35961     35962
     35963     35964     35963     35965     35964     35965     35966     35967
     35966     35968     35967     35968     35969     35970     35969     35971
     35970     35971     35972     35973     35972     35974     35973     35974
     35975     35976     35975     35977     35976     35977     35978     35979
     35978     35980     35979     35980     35981     35982     35981     35983
     35982     35983     35984     35985     35984     35986     35985     35986
     35987     35988     35987     35989     35988     35989     35990     35991
     35990     35992     35991     35992     35993     35994     35993     35995
     35994     35995     35996     35997     35996     35998     35997     35998
     35999     36000     35999     36001     36000     36001     36002     36003
     36002     36004     36003     36004     36005     36006     36005     36007
     36006     36007     36008     36009     36008     36010     36009     36010
     36011     36012     36011     36013     36012     36013     36014     36015
     36014     36016     36015     36016     36017     36018     36017     36019
     36018     36019     36020     36021     36020     36022     36021     36022
     36023     36024     36023     36025     36024     36025     36026     36027
     36026     36028     36027     36028     36029     36030     36029     36031
     36030     36031     36032     36033     36032     36034     36033     36034
     36035     36036     36035     36037     36036     36037     36038     36039
     36038     36040     36039     36040     36041     36042     36041     36043
     36042     36043     36044     36045     36044     36046     36045     36046
     36047     36048     36047     36049     36048     36049     36050     36051
     36050     36052     36051     36052     36053     36054     36053     36055
     36054     36055     36056     36057     36056     36058     36057     36058
     36059     36060     36059     36061     36060     36061     36062     36063
     36062     36064     36063     36064     36065     36066     36065     36067
     36066     36067     36068     36069     36068     36070     36069     36070
     36071     36072     36071     36073     36072     36073     36074     36075
     36074     36076     36075     36076     36077     36078     36077     36079
     36078     36079     36080     36081     36080     36082     36081     36082
     36083     36084     36083     36085     36084     36085     36086     36087
     36086     36088     36087     36088     36089     36090     36089     36091
     36090     36091     36092     36093     36092     36094     36093     36094
     36095     36096     36095     36097     36096     36097     36098     36099
     36098     36100     36099     36100     36101     36102     36101     36103
     36102     36103     36104     36105     36104     36106     36105     36106
     36107     36108     36107     36109     36108     36109     36110     36111
     36110     36112     36111     36112     36113     36114     36113     36115
     36114     36115     36116     36117     36116     36118     36117     36118
     36119     36120     36119     36121     36120     36121     36122     36123
     36122     36124     36123     36124     36125     36126     36125     36127
     36126     36127     36128     36129     36128     36130     36129     36130
     36131     36132     36131     36133     36132     36133     36134     36135
     36134     36136     36135     36136     36137     36138     36137     36139
     36138     36139     36140     36141     36140     36142     36141     36142
     36143     36144     36143     36145     36144     36145     36146     36147
     36146     36148     36147     36148     36149     36150     36149     36151
     36150     36151     36152     36153     36152     36154     36153     36154
     36155     36156     36155     36157     36156     36157     36158     36159
     36158     36160     36159     36160     36161     36162     36161     36163
     36162     36163     36164     36165     36164     36166     36165     36166
     36167     36168     36167     36169     36168     36169     36170     36171
     36170     36172     36171     36172     36173     36174     36173     36175
     36174     36175     36176     36177     36176     36178     36177     36178
     36179     36180     36179     36181     36180     36181     36182     36183
     36182     36184     36183     36184     36185     36186     36185     36187
     36186     36187     36188     36189     36188     36190     36189     36190
     36191     36192     36191     36193     36192     36193     36194     36195
     36194     36196     36195     36196     36197     36198     36197     36199
     36198     36199     36200     36201     36200     36202     36201     36202
     36203     36204     36203     36205     36204     36205     36206     36207
     36206     36208     36207     36208     36209     36210     36209     36211
     36210     36211     36212     36213     36212     36214     36213     36214
     36215     36216     36215     36217     36216     36217     36218     36219
     36218     36220     36219     36220     36221     36222     36221     36223
     36222     36223     36224     36225     36224     36226     36225     36226
     36227     36228     36227     36229     36228     36229     36230     36231
     36230     36232     36231     36232     36233     36234     36233     36235
     36234     36235     36236     36237     36236     36238     36237     36238
     36239     36240     36239     36241     36240     36241     36242     36243
     36242     36244     36243     36244     36245     36246     36245     36247
     36246     36247     36248     36249     36248     36250     36249     36250
     36251     36252     36251     36253     36252     36253     36254     36255
     36254     36256     36255     36256     36257     36258     36257     36259
     36258     36259     36260     36261     36260     36262     36261     36262
     36263     36264     36263     36265     36264     36265     36266     36267
     36266     36268     36267     36268     36269     36270     36269     36271
     36270     36271     36272     36273     36272     36274     36273     36274
     36275     36276     36275     36277     36276     36277     36278     36279
     36278     36280     36279     36280     36281     36282     36281     36283
     36282     36283     36284     36285     36284     36286     36285     36286
     36287     36288     36287     36289     36288     36289     36290     36291
     36290     36292     36291     36292     36293     36294     36293     36295
     36294     36295     36296     36297     36296     36298     36297     36298
     36299     36300     36299     36301     36300     36301     36302     36303
     36302     36304     36303     36304     36305     36306     36305     36307
     36306     36307     36308     36309     36308     36310     36309     36310
     36311     36312     36311     36313     36312     36313     36314     36315
     36314     36316     36315     36316     36317     36318     36317     36319
     36318     36319     36320     36321     36320     36322     36321     36322
     36323     36324     36323     36325     36324     36325     36326     36327
     36326     36328     36327     36328     36329     36330     36329     36331
     36330     36331     36332     36333     36332     36334     36333     36334
     36335     36336     36335     36337     36336     36337     36338     36339
     36338     36340     36339     36340     36341     36342     36341     36343
     36342     36343     36344     36345     36344     36346     36345     36346
     36347     36348     36347     36349     36348     36349     36350     36351
     36350     36352     36351     36352     36353     36354     36353     36355
     36354     36355     36356     36357     36356     36358     36357     36358
     36359     36360     36359     36361     36360     36361     36362     36363
     36362     36364     36363     36364     36365     36366     36365     36367
     36366     36367     36368     36369     36368     36370     36369     36370
     36371     36372     36371     36373     36372     36373     36374     36375
     36374     36376     36375     36376     36377     36378     36377     36379
     36378     36379     36380     36381     36380     36382     36381     36382
     36383     36384     36383     36385     36384     36385     36386     36387
     36386     36388     36387     36388     36389     36390     36389     36391
     36390     36391     36392     36393     36392     36394     36393     36394
     36395     36396     36395     36397     36396     36397     36398     36399
     36398     36400     36399     36400     36401     36402     36401     36403
     36402     36403     36404     36405     36404     36406     36405     36406
     36407     36408     36407     36409     36408     36409     36410     36411
     36410     36412     36411     36412     36413     36414     36413     36415
     36414     36415     36416     36417     36416     36418     36417     36418
     36419     36420     36419     36421     36420     36421     36422     36423
     36422     36424     36423     36424     36425     36426     36425     36427
     36426     36427     36428     36429     36428     36430     36429     36430
     36431     36432     36431     36433     36432     36433     36434     36435
     36434     36436     36435     36436     36437     36438     36437     36439
     36438     36439     36440     36441     36440     36442     36441     36442
     36443     36444     36443     36445     36444     36445     36446     36447
     36446     36448     36447     36448     36449     36450     36449     36451
     36450     36451     36452     36453     36452     36454     36453     36454
     36455     36456     36455     36457     36456     36457     36458     36459
     36458     36460     36459     36460     36461     36462     36461     36463
     36462     36463     36464     36465     36464     36466     36465     36466
     36467     36468     36467     36469     36468     36469     36470     36471
     36470     36472     36471     36472     36473     36474     36473     36475
     36474     36475     36476     36477     36476     36478     36477     36478
     36479     36480     36479     36481     36480     36481     36482     36483
     36482     36484     36483     36484     36485     36486     36485     36487
     36486     36487     36488     36489     36488     36490     36489     36490
     36491     36492     36491     36493     36492     36493     36494     36495
     36494     36496     36495     36496     36497     36498     36497     36499
     36498     36499     36500     36501     36500     36502     36501     36502
     36503     36504     36503     36505     36504     36505     36506     36507
     36506     36508     36507     36508     36509     36510     36509     36511
     36510     36511     36512     36513     36512     36514     36513     36514
     36515     36516     36515     36517     36516     36517     36518     36519
     36518     36520     36519     36520     36521     36522     36521     36523
     36522     36523     36524     36525     36524     36526     36525     36526
     36527     36528     36527     36529     36528     36529     36530     36531
     36530     36532     36531     36532     36533     36534     36533     36535
     36534     36535     36536     36537     36536     36538     36537     36538
     36539     36540     36539     36541     36540     36541     36542     36543
     36542     36544     36543     36544     36545     36546     36545     36547
     36546     36547     36548     36549     36548     36550     36549     36550
     36551     36552     36551     36553     36552     36553     36554     36555
     36554     36556     36555     36556     36557     36558     36557     36559
     36558     36559     36560     36561     36560     36562     36561     36562
     36563     36564     36563     36565     36564     36565     36566     36567
     36566     36568     36567     36568     36569     36570     36569     36571
     36570     36571     36572     36573     36572     36574     36573     36574
     36575     36576     36575     36577     36576     36577     36578     36579
     36578     36580     36579     36580     36581     36582     36581     36583
     36582     36583     36584     36585     36584     36586     36585     36586
     36587     36588     36587     36589     36588     36589     36590     36591
     36590     36592     36591     36592     36593     36594     36593     36595
     36594     36595     36596     36597     36596     36598     36597     36598
     36599     36600     36599     36601     36600     36601     36602     36603
     36602     36604     36603     36604     36605     36606     36605     36607
     36606     36607     36608     36609     36608     36610     36609     36610
     36611     36612     36611     36613     36612     36613     36614     36615
     36614     36616     36615     36616     36617     36618     36617     36619
     36618     36619     36620     36621     36620     36622     36621     36622
     36623     36624     36623     36625     36624     36625     36626     36627
     36626     36628     36627     36628     36629     36630     36629     36631
     36630     36631     36632     36633     36632     36634     36633     36634
     36635     36636     36635     36637     36636     36637     36638     36639
     36638     36640     36639     36640     36641     36642     36641     36643
     36642     36643     36644     36645     36644     36646     36645     36646
     36647     36648     36647     36649     36648     36649     36650     36651
     36650     36652     36651     36652     36653     36654     36653     36655
     36654     36655     36656     36657     36656     36658     36657     36658
     36659     36660     36659     36661     36660     36661     36662     36663
     36662     36664     36663     36664     36665     36666     36665     36667
     36666     36667     36668     36669     36668     36670     36669     36670
     36671     36672     36671     36673     36672     36673     36674     36675
     36674     36676     36675     36676     36677     36678     36677     36679
     36678     36679     36680     36681     36680     36682     36681     36682
     36683     36684     36683     36685     36684     36685     36686     36687
     36686     36688     36687     36688     36689     36690     36689     36691
     36690     36691     36692     36693     36692     36694     36693     36694
     36695     36696     36695     36697     36696     36697     36698     36699
     36698     36700     36699     36700     36701     36702     36701     36703
     36702     36703     36704     36705     36704     36706     36705     36706
     36707     36708     36707     36709     36708     36709     36710     36711
     36710     36712     36711     36712     36713     36714     36713     36715
     36714     36715     36716     36717     36716     36718     36717     36718
     36719     36720     36719     36721     36720     36721     36722     36723
     36722     36724     36723     36724     36725     36726     36725     36727
     36726     36727     36728     36729     36728     36730     36729     36730
     36731     36732     36731     36733     36732     36733     36734     36735
     36734     36736     36735     36736     36737     36738     36737     36739
     36738     36739     36740     36741     36740     36742     36741     36742
     36743     36744     36743     36745     36744     36745     36746     36747
     36746     36748     36747     36748     36749     36750     36749     36751
     36750     36751     36752     36753     36752     36754     36753     36754
     36755     36756     36755     36757     36756     36757     36758     36759
     36758     36760     36759     36760     36761     36762     36761     36763
     36762     36763     36764     36765     36764     36766     36765     36766
     36767     36768     36767     36769     36768     36769     36770     36771
     36770     36772     36771     36772     36773     36774     36773     36775
     36774     36775     36776     36777     36776     36778     36777     36778
     36779     36780     36779     36781     36780     36781     36782     36783
     36782     36784     36783     36784     36785     36786     36785     36787
     36786     36787     36788     36789     36788     36790     36789     36790
     36791     36792     36791     36793     36792     36793     36794     36795
     36794     36796     36795     36796     36797     36798     36797     36799
     36798     36799     36800     36801     36800     36802     36801     36802
     36803     36804     36803     36805     36804     36805     36806     36807
     36806     36808     36807     36808     36809     36810     36809     36811
     36810     36811     36812     36813     36812     36814     36813     36814
     36815     36816     36815     36817     36816     36817     36818     36819
     36818     36820     36819     36820     36821     36822     36821     36823
     36822     36823     36824     36825     36824     36826     36825     36826
     36827     36828     36827     36829     36828     36829     36830     36831
     36830     36832     36831     36832     36833     36834     36833     36835
     36834     36835     36836     36837     36836     36838     36837     36838
     36839     36840     36839     36841     36840     36841     36842     36843
     36842     36844     36843     36844     36845     36846     36845     36847
     36846     36847     36848     36849     36848     36850     36849     36850

     39582 !NTHETA: angles
         2         1         3         2         1         4         2         1         5
         3         1         4         3         1         5         4         1         5
         1         5         6         1         5         7         1         5        15
         6         5         7         6         5        15         7         5        15
         5         7         8         5         7         9         5         7        10
         8         7         9         8         7        10         9         7        10
         7        10        11         7        10        12        11        10        12
        10        12        13        10        12        14        13        12        14
         5        15        16         5        15        17        16        15        17
        19        18        20        19        18        21        19        18        22
        20        18        21        20        18        22        21        18        22
        18        22        23        18        22        24        18        22        32
        23        22        24        23        22        32        24        22        32
        22        24        25        22        24        26        22        24        27
        25        24        26        25        24        27        26        24        27
        24        27        28        24        27        29        28        27        29
        27        29        30        27        29        31        30        29        31
        22        32        33        22        32        34        33        32        34
        36        35        37        36        35        38        36        35        39
        37        35        38        37        35        39        38        35        39
        35        39        40        35        39        41        35        39        59
        40        39        41        40        39        59        41        39        59
        39        41        42        39        41        43        39        41        44
        42        41        43        42        41        44        43        41        44
        41        44        45        41        44        46        41        44        47
        45        44        46        45        44        47        46        44        47
        44        47        48        44        47        49        44        47        50
        48        47        49        48        47        50        49        47        50
        47        50        51        47        50        52        51        50        52
        50        52        53        50        52        56        53        52        56
        52        53        54        52        53        55        54        53        55
        52        56        57        52        56        58        57        56        58
        39        59        60        39        59        61        60        59        61
        63        62        64        63        62        65        63        62        68
        64        62        65        64        62        68        65        62        68
        62        65        66        62        65        67        62        65        73
        66        65        67        66        65        73        67        65        73
        62        68        69        62        68        70        62        68        76
        69        68        70        69        68        76        70        68        76
        68        70        71        68        70        72        68        70        73
        71        70        72        71        70        73        72        70        73
        65        73        70        65        73        74        65        73        75
        70        73        74        70        73        75        74        73        75
        68        76        77        68        76        78        77        76        78
        80        79        81        80        79        82        80        79        83
        81        79        82        81        79        83        82        79        83
        79        83        84        79        83        85        79        83        93
        84        83        85        84        83        93        85        83        93
        83        85        86        83        85        87        83        85        88
        86        85        87        86        85        88        87        85        88
        85        88        89        85        88        90        89        88        90
        88        90        91        88        90        92        91        90        92
        83        93        94        83        93        95        94        93        95
        97        96        98        97        96        99        97        96       102
        98        96        99        98        96       102        99        96       102
        96        99       100        96        99       101        96        99       107
       100        99       101       100        99       107       101        99       107
        96       102       103        96       102       104        96       102       110
       103       102       104       103       102       110       104       102       110
       102       104       105       102       104       106       102       104       107
       105       104       106       105       104       107       106       104       107
        99       107       104        99       107       108        99       107       109
       104       107       108       104       107       109       108       107       109
       102       110       111       102       110       112       111       110       112
       114       113       117       114       113       121       114       113       125
       117       113       121       117       113       125       121       113       125
       113       114       115       113       114       116       113       114       129
       115       114       116       115       114       129       116       114       129
       113       117       118       113       117       119       113       117       120
       118       117       119       118       117       120       119       117       120
       113       121       122       113       121       123       113       121       124
       122       121       123       122       121       124       123       121       124
       113       125       126       113       125       127       113       125       128
       126       125       127       126       125       128       127       125       128
       114       129       130       114       129       131       114       129       135
       130       129       131       130       129       135       131       129       135
       133       132       134       133       132       135       133       132       136
       134       132       135       134       132       136       135       132       136
       129       135       132       132       136       137       136       137       138
       136       137       139       136       137       140       138       137       139
       138       137       140       139       137       140       137       140       141
       137       140       142       137       140       148       141       140       142
       141       140       148       142       140       148       140       142       143
       142       143       144       142       143       145       144       143       145
       143       145       146       143       145       147       143       145       157
       146       145       147       146       145       157       147       145       157
       140       148       149       140       148       150       140       148       151
       149       148       150       149       148       151       150       148       151
       148       151       152       151       152       153       151       152       154
       153       152       154       152       154       155       152       154       156
       152       154       204       155       154       156       155       154       204
       156       154       204       145       157       158       145       157       159
       145       157       160       158       157       159       158       157       160
       159       157       160       157       160       161       157       160       162
       157       160       163       161       160       162       161       160       163
       162       160       163       160       163       164       160       163       165
       160       163       166       164       163       165       164       163       166
       165       163       166       163       166       167       163       166       168
       163       166       169       167       166       168       167       166       169
       168       166       169       166       169       170       166       169       171
       166       169       172       170       169       171       170       169       172
       171       169       172       169       172       173       169       172       174
       169       172       175       173       172       174       173       172       175
       174       172       175       172       175       176       172       175       177
       176       175       177       175       177       178       175       177       179
       178       177       179       177       179       180       177       179       181
       177       179       182       180       179       181       180       179       182
       181       179       182       179       182       183       179       182       184
       179       182       185       183       182       184       183       182       185
       184       182       185       182       185       186       182       185       187
       182       185       188       186       185       187       186       185       188
       187       185       188       185       188       189       185       188       190
       185       188       191       189       188       190       189       188       191
       190       188       191       188       191       192       188       191       193
       188       191       194       192       191       193       192       191       194
       193       191       194       191       194       195       191       194       196
       191       194       197       195       194       196       195       194       197
       196       194       197       194       197       198       194       197       199
       194       197       200       198       197       199       198       197       200
       199       197       200       197       200       201       197       200       202
       197       200       203       201       200       202       201       200       203
       202       200       203       154       204       205       154       204       206
       154       204       207       205       204       206       205       204       207
       206       204       207       204       207       208       204       207       209
       204       207       210       208       207       209       208       207       210
       209       207       210       207       210       211       207       210       212
       207       210       213       211       210       212       211       210       213
       212       210       213       210       213       214       210       213       215
       210       213       216       214       213       215       214       213       216
       215       213       216       213       216       217       213       216       218
       213       216       219       217       216       218       217       216       219
       218       216       219       216       219       220       216       219       221
       216       219       222       220       219       221       220       219       222
       221       219       222       219       222       223       219       222       224
       219       222       225       223       222       224       223       222       225
       224       222       225       222       225       226       222       225       227
       222       225       228       226       225       227       226       225       228
       227       225       228       225       228       229       225       228       230
       225       228       231       229       228       230       229       228       231
       230       228       231       228       231       232       228       231       233
       228       231       234       232       231       233       232       231       234
       233       231       234       231       234       235       231       234       236
       231       234       237       235       234       236       235       234       237
       236       234       237       234       237       238       234       237       239
       234       237       240       238       237       239       238       237       240
       239       237       240       237       240       241       237       240       242
       237       240       243       241       240       242       241       240       243
       242       240       243       240       243       244       240       243       245
       240       243       246       244       243       245       244       243       246
       245       243       246       248       247       249       248       247       250
       248       247       251       249       247       250       249       247       251
       250       247       251       247       251       252       247       251       253
       247       251       256       252       251       253       252       251       256
       253       251       256       251       253       254       251       253       255
       254       253       255       251       256       257       251       256       258
       251       256       262       257       256       258       257       256       262
       258       256       262       260       259       261       260       259       262
       260       259       263       261       259       262       261       259       263
       262       259       263       256       262       259       259       263       264
       263       264       265       263       264       266       263       264       267
       265       264       266       265       264       267       266       264       267
       264       267       268       264       267       269       264       267       275
       268       267       269       268       267       275       269       267       275
       267       269       270       269       270       271       269       270       272
       271       270       272       270       272       273       270       272       274
       270       272       284       273       272       274       273       272       284
       274       272       284       267       275       276       267       275       277
       267       275       278       276       275       277       276       275       278
       277       275       278       275       278       279       278       279       280
       278       279       281       280       279       281       279       281       282
       279       281       283       279       281       331       282       281       283
       282       281       331       283       281       331       272       284       285
       272       284       286       272       284       287       285       284       286
       285       284       287       286       284       287       284       287       288
       284       287       289       284       287       290       288       287       289
       288       287       290       289       287       290       287       290       291
       287       290       292       287       290       293       291       290       292
       291       290       293       292       290       293       290       293       294
       290       293       295       290       293       296       294       293       295
       294       293       296       295       293       296       293       296       297
       293       296       298       293       296       299       297       296       298
       297       296       299       298       296       299       296       299       300
       296       299       301       296       299       302       300       299       301
       300       299       302       301       299       302       299       302       303
       299       302       304       303       302       304       302       304       305
       302       304       306       305       304       306       304       306       307
       304       306       308       304       306       309       307       306       308
       307       306       309       308       306       309       306       309       310
       306       309       311       306       309       312       310       309       311
       310       309       312       311       309       312       309       312       313
       309       312       314       309       312       315       313       312       314
       313       312       315       314       312       315       312       315       316
       312       315       317       312       315       318       316       315       317
       316       315       318       317       315       318       315       318       319
       315       318       320       315       318       321       319       318       320
       319       318       321       320       318       321       318       321       322
       318       321       323       318       321       324       322       321       323
       322       321       324       323       321       324       321       324       325
       321       324       326       321       324       327       325       324       326
       325       324       327       326       324       327       324       327       328
       324       327       329       324       327       330       328       327       329
       328       327       330       329       327       330       281       331       332
       281       331       333       281       331       334       332       331       333
       332       331       334       333       331       334       331       334       335
       331       334       336       331       334       337       335       334       336
       335       334       337       336       334       337       334       337       338
       334       337       339       334       337       340       338       337       339
       338       337       340       339       337       340       337       340       341
       337       340       342       337       340       343       341       340       342
       341       340       343       342       340       343       340       343       344
       340       343       345       340       343       346       344       343       345
       344       343       346       345       343       346       343       346       347
       343       346       348       343       346       349       347       346       348
       347       346       349       348       346       349       346       349       350
       346       349       351       346       349       352       350       349       351
       350       349       352       351       349       352       349       352       353
       349       352       354       349       352       355       353       352       354
       353       352       355       354       352       355       352       355       356
       352       355       357       352       355       358       356       355       357
       356       355       358       357       355       358       355       358       359
       355       358       360       355       358       361       359       358       360
       359       358       361       360       358       361       358       361       362
       358       361       363       358       361       364       362       361       363
       362       361       364       363       361       364       361       364       365
       361       364       366       361       364       367       365       364       366
       365       364       367       366       364       367       364       367       368
       364       367       369       364       367       370       368       367       369
       368       367       370       369       367       370       367       370       371
       367       370       372       367       370       373       371       370       372
       371       370       373       372       370       373       375       374       376
       375       374       377       375       374       378       376       374       377
       376       374       378       377       374       378       374       378       379
       374       378       380       374       378       383       379       378       380
       379       378       383       380       378       383       378       380       381
       378       380       382       381       380       382       378       383       384
       378       383       385       378       383       389       384       383       385
       384       383       389       385       383       389       387       386       388
       387       386       389       387       386       390       388       386       389
       388       386       390       389       386       390       383       389       386
       386       390       391       390       391       392       390       391       393
       390       391       394       392       391       393       392       391       394
       393       391       394       391       394       395       391       394       396
       391       394       402       395       394       396       395       394       402
       396       394       402       394       396       397       396       397       398
       396       397       399       398       397       399       397       399       400
       397       399       401       397       399       411       400       399       401
       400       399       411       401       399       411       394       402       403
       394       402       404       394       402       405       403       402       404
       403       402       405       404       402       405       402       405       406
       405       406       407       405       406       408       407       406       408
       406       408       409       406       408       410       406       408       458
       409       408       410       409       408       458       410       408       458
       399       411       412       399       411       413       399       411       414
       412       411       413       412       411       414       413       411       414
       411       414       415       411       414       416       411       414       417
       415       414       416       415       414       417       416       414       417
       414       417       418       414       417       419       414       417       420
       418       417       419       418       417       420       419       417       420
       417       420       421       417       420       422       417       420       423
       421       420       422       421       420       423       422       420       423
       420       423       424       420       423       425       420       423       426
       424       423       425       424       423       426       425       423       426
       423       426       427       423       426       428       423       426       429
       427       426       428       427       426       429       428       426       429
       426       429       430       426       429       431       430       429       431
       429       431       432       429       431       433       432       431       433
       431       433       434       431       433       435       431       433       436
       434       433       435       434       433       436       435       433       436
       433       436       437       433       436       438       433       436       439
       437       436       438       437       436       439       438       436       439
       436       439       440       436       439       441       436       439       442
       440       439       441       440       439       442       441       439       442
       439       442       443       439       442       444       439       442       445
       443       442       444       443       442       445       444       442       445
       442       445       446       442       445       447       442       445       448
       446       445       447       446       445       448       447       445       448
       445       448       449       445       448       450       445       448       451
       449       448       450       449       448       451       450       448       451
       448       451       452       448       451       453       448       451       454
       452       451       453       452       451       454       453       451       454
       451       454       455       451       454       456       451       454       457
       455       454       456       455       454       457       456       454       457
       408       458       459       408       458       460       408       458       461
       459       458       460       459       458       461       460       458       461
       458       461       462       458       461       463       458       461       464
       462       461       463       462       461       464       463       461       464
       461       464       465       461       464       466       461       464       467
       465       464       466       465       464       467       466       464       467
       464       467       468       464       467       469       464       467       470
       468       467       469       468       467       470       469       467       470
       467       470       471       467       470       472       467       470       473
       471       470       472       471       470       473       472       470       473
       470       473       474       470       473       475       470       473       476
       474       473       475       474       473       476       475       473       476
       473       476       477       473       476       478       473       476       479
       477       476       478       477       476       479       478       476       479
       476       479       480       476       479       481       476       479       482
       480       479       481       480       479       482       481       479       482
       479       482       483       479       482       484       479       482       485
       483       482       484       483       482       485       484       482       485
       482       485       486       482       485       487       482       485       488
       486       485       487       486       485       488       487       485       488
       485       488       489       485       488       490       485       488       491
       489       488       490       489       488       491       490       488       491
       488       491       492       488       491       493       488       491       494
       492       491       493       492       491       494       493       491       494
       491       494       495       491       494       496       491       494       497
       495       494       496       495       494       497       496       494       497
       494       497       498       494       497       499       494       497       500
       498       497       499       498       497       500       499       497       500
       502       501       505       502       501       509       502       501       513
       505       501       509       505       501       513       509       501       513
       501       502       503       501       502       504       501       502       517
       503       502       504       503       502       517       504       502       517
       501       505       506       501       505       507       501       505       508
       506       505       507       506       505       508       507       505       508
       501       509       510       501       509       511       501       509       512
       510       509       511       510       509       512       511       509       512
       501       513       514       501       513       515       501       513       516
       514       513       515       514       513       516       515       513       516
       502       517       518       502       517       519       502       517       523
       518       517       519       518       517       523       519       517       523
       521       520       522       521       520       523       521       520       524
       522       520       523       522       520       524       523       520       524
       517       523       520       520       524       525       524       525       526
       524       525       527       524       525       528       526       525       527
       526       525       528       527       525       528       525       528       529
       525       528       530       525       528       536       529       528       530
       529       528       536       530       528       536       528       530       531
       530       531       532       530       531       533       532       531       533
       531       533       534       531       533       535       531       533       545
       534       533       535       534       533       545       535       533       545
       528       536       537       528       536       538       528       536       539
       537       536       538       537       536       539       538       536       539
       536       539       540       539       540       541       539       540       542
       541       540       542       540       542       543       540       542       544
       540       542       592       543       542       544       543       542       592
       544       542       592       533       545       546       533       545       547
       533       545       548       546       545       547       546       545       548
       547       545       548       545       548       549       545       548       550
       545       548       551       549       548       550       549       548       551
       550       548       551       548       551       552       548       551       553
       548       551       554       552       551       553       552       551       554
       553       551       554       551       554       555       551       554       556
       551       554       557       555       554       556       555       554       557
       556       554       557       554       557       558       554       557       559
       554       557       560       558       557       559       558       557       560
       559       557       560       557       560       561       557       560       562
       557       560       563       561       560       562       561       560       563
       562       560       563       560       563       564       560       563       565
       564       563       565       563       565       566       563       565       567
       566       565       567       565       567       568       565       567       569
       565       567       570       568       567       569       568       567       570
       569       567       570       567       570       571       567       570       572
       567       570       573       571       570       572       571       570       573
       572       570       573       570       573       574       570       573       575
       570       573       576       574       573       575       574       573       576
       575       573       576       573       576       577       573       576       578
       573       576       579       577       576       578       577       576       579
       578       576       579       576       579       580       576       579       581
       576       579       582       580       579       581       580       579       582
       581       579       582       579       582       583       579       582       584
       579       582       585       583       582       584       583       582       585
       584       582       585       582       585       586       582       585       587
       582       585       588       586       585       587       586       585       588
       587       585       588       585       588       589       585       588       590
       585       588       591       589       588       590       589       588       591
       590       588       591       542       592       593       542       592       594
       542       592       595       593       592       594       593       592       595
       594       592       595       592       595       596       592       595       597
       592       595       598       596       595       597       596       595       598
       597       595       598       595       598       599       595       598       600
       595       598       601       599       598       600       599       598       601
       600       598       601       598       601       602       598       601       603
       598       601       604       602       601       603       602       601       604
       603       601       604       601       604       605       601       604       606
       601       604       607       605       604       606       605       604       607
       606       604       607       604       607       608       604       607       609
       604       607       610       608       607       609       608       607       610
       609       607       610       607       610       611       607       610       612
       607       610       613       611       610       612       611       610       613
       612       610       613       610       613       614       610       613       615
       610       613       616       614       613       615       614       613       616
       615       613       616       613       616       617       613       616       618
       613       616       619       617       616       618       617       616       619
       618       616       619       616       619       620       616       619       621
       616       619       622       620       619       621       620       619       622
       621       619       622       619       622       623       619       622       624
       619       622       625       623       622       624       623       622       625
       624       622       625       622       625       626       622       625       627
       622       625       628       626       625       627       626       625       628
       627       625       628       625       628       629       625       628       630
       625       628       631       629       628       630       629       628       631
       630       628       631       628       631       632       628       631       633
       628       631       634       632       631       633       632       631       634
       633       631       634       636       635       639       636       635       643
       636       635       647       639       635       643       639       635       647
       643       635       647       635       636       637       635       636       638
       635       636       651       637       636       638       637       636       651
       638       636       651       635       639       640       635       639       641
       635       639       642       640       639       641       640       639       642
       641       639       642       635       643       644       635       643       645
       635       643       646       644       643       645       644       643       646
       645       643       646       635       647       648       635       647       649
       635       647       650       648       647       649       648       647       650
       649       647       650       636       651       652       636       651       653
       636       651       657       652       651       653       652       651       657
       653       651       657       655       654       656       655       654       657
       655       654       658       656       654       657       656       654       658
       657       654       658       651       657       654       654       658       659
       658       659       660       658       659       661       658       659       662
       660       659       661       660       659       662       661       659       662
       659       662       663       659       662       664       659       662       670
       663       662       664       663       662       670       664       662       670
       662       664       665       664       665       666       664       665       667
       666       665       667       665       667       668       665       667       669
       665       667       679       668       667       669       668       667       679
       669       667       679       662       670       671       662       670       672
       662       670       673       671       670       672       671       670       673
       672       670       673       670       673       674       673       674       675
       673       674       676       675       674       676       674       676       677
       674       676       678       674       676       726       677       676       678
       677       676       726       678       676       726       667       679       680
       667       679       681       667       679       682       680       679       681
       680       679       682       681       679       682       679       682       683
       679       682       684       679       682       685       683       682       684
       683       682       685       684       682       685       682       685       686
       682       685       687       682       685       688       686       685       687
       686       685       688       687       685       688       685       688       689
       685       688       690       685       688       691       689       688       690
       689       688       691       690       688       691       688       691       692
       688       691       693       688       691       694       692       691       693
       692       691       694       693       691       694       691       694       695
       691       694       696       691       694       697       695       694       696
       695       694       697       696       694       697       694       697       698
       694       697       699       698       697       699       697       699       700
       697       699       701       700       699       701       699       701       702
       699       701       703       699       701       704       702       701       703
       702       701       704       703       701       704       701       704       705
       701       704       706       701       704       707       705       704       706
       705       704       707       706       704       707       704       707       708
       704       707       709       704       707       710       708       707       709
       708       707       710       709       707       710       707       710       711
       707       710       712       707       710       713       711       710       712
       711       710       713       712       710       713       710       713       714
       710       713       715       710       713       716       714       713       715
       714       713       716       715       713       716       713       716       717
       713       716       718       713       716       719       717       716       718
       717       716       719       718       716       719       716       719       720
       716       719       721       716       719       722       720       719       721
       720       719       722       721       719       722       719       722       723
       719       722       724       719       722       725       723       722       724
       723       722       725       724       722       725       676       726       727
       676       726       728       676       726       729       727       726       728
       727       726       729       728       726       729       726       729       730
       726       729       731       726       729       732       730       729       731
       730       729       732       731       729       732       729       732       733
       729       732       734       729       732       735       733       732       734
       733       732       735       734       732       735       732       735       736
       732       735       737       732       735       738       736       735       737
       736       735       738       737       735       738       735       738       739
       735       738       740       735       738       741       739       738       740
       739       738       741       740       738       741       738       741       742
       738       741       743       738       741       744       742       741       743
       742       741       744       743       741       744       741       744       745
       741       744       746       741       744       747       745       744       746
       745       744       747       746       744       747       744       747       748
       744       747       749       744       747       750       748       747       749
       748       747       750       749       747       750       747       750       751
       747       750       752       747       750       753       751       750       752
       751       750       753       752       750       753       750       753       754
       750       753       755       750       753       756       754       753       755
       754       753       756       755       753       756       753       756       757
       753       756       758       753       756       759       757       756       758
       757       756       759       758       756       759       756       759       760
       756       759       761       756       759       762       760       759       761
       760       759       762       761       759       762       759       762       763
       759       762       764       759       762       765       763       762       764
       763       762       765       764       762       765       762       765       766
       762       765       767       762       765       768       766       765       767
       766       765       768       767       765       768       770       769       773
       770       769       777       770       769       781       773       769       777
       773       769       781       777       769       781       769       770       771
       769       770       772       769       770       785       771       770       772
       771       770       785       772       770       785       769       773       774
       769       773       775       769       773       776       774       773       775
       774       773       776       775       773       776       769       777       778
       769       777       779       769       777       780       778       777       779
       778       777       780       779       777       780       769       781       782
       769       781       783       769       781       784       782       781       783
       782       781       784       783       781       784       770       785       786
       770       785       787       770       785       791       786       785       787
       786       785       791       787       785       791       789       788       790
       789       788       791       789       788       792       790       788       791
       790       788       792       791       788       792       785       791       788
       788       792       793       792       793       794       792       793       795
       792       793       796       794       793       795       794       793       796
       795       793       796       793       796       797       793       796       798
       793       796       804       797       796       798       797       796       804
       798       796       804       796       798       799       798       799       800
       798       799       801       800       799       801       799       801       802
       799       801       803       799       801       813       802       801       803
       802       801       813       803       801       813       796       804       805
       796       804       806       796       804       807       805       804       806
       805       804       807       806       804       807       804       807       808
       807       808       809       807       808       810       809       808       810
       808       810       811       808       810       812       808       810       860
       811       810       812       811       810       860       812       810       860
       801       813       814       801       813       815       801       813       816
       814       813       815       814       813       816       815       813       816
       813       816       817       813       816       818       813       816       819
       817       816       818       817       816       819       818       816       819
       816       819       820       816       819       821       816       819       822
       820       819       821       820       819       822       821       819       822
       819       822       823       819       822       824       819       822       825
       823       822       824       823       822       825       824       822       825
       822       825       826       822       825       827       822       825       828
       826       825       827       826       825       828       827       825       828
       825       828       829       825       828       830       825       828       831
       829       828       830       829       828       831       830       828       831
       828       831       832       828       831       833       832       831       833
       831       833       834       831       833       835       834       833       835
       833       835       836       833       835       837       833       835       838
       836       835       837       836       835       838       837       835       838
       835       838       839       835       838       840       835       838       841
       839       838       840       839       838       841       840       838       841
       838       841       842       838       841       843       838       841       844
       842       841       843       842       841       844       843       841       844
       841       844       845       841       844       846       841       844       847
       845       844       846       845       844       847       846       844       847
       844       847       848       844       847       849       844       847       850
       848       847       849       848       847       850       849       847       850
       847       850       851       847       850       852       847       850       853
       851       850       852       851       850       853       852       850       853
       850       853       854       850       853       855       850       853       856
       854       853       855       854       853       856       855       853       856
       853       856       857       853       856       858       853       856       859
       857       856       858       857       856       859       858       856       859
       810       860       861       810       860       862       810       860       863
       861       860       862       861       860       863       862       860       863
       860       863       864       860       863       865       860       863       866
       864       863       865       864       863       866       865       863       866
       863       866       867       863       866       868       863       866       869
       867       866       868       867       866       869       868       866       869
       866       869       870       866       869       871       866       869       872
       870       869       871       870       869       872       871       869       872
       869       872       873       869       872       874       869       872       875
       873       872       874       873       872       875       874       872       875
       872       875       876       872       875       877       872       875       878
       876       875       877       876       875       878       877       875       878
       875       878       879       875       878       880       875       878       881
       879       878       880       879       878       881       880       878       881
       878       881       882       878       881       883       878       881       884
       882       881       883       882       881       884       883       881       884
       881       884       885       881       884       886       881       884       887
       885       884       886       885       884       887       886       884       887
       884       887       888       884       887       889       884       887       890
       888       887       889       888       887       890       889       887       890
       887       890       891       887       890       892       887       890       893
       891       890       892       891       890       893       892       890       893
       890       893       894       890       893       895       890       893       896
       894       893       895       894       893       896       895       893       896
       893       896       897       893       896       898       893       896       899
       897       896       898       897       896       899       898       896       899
       896       899       900       896       899       901       896       899       902
       900       899       901       900       899       902       901       899       902
       904       903       905       904       903       906       904       903       907
       905       903       906       905       903       907       906       903       907
       903       907       908       903       907       909       903       907       912
       908       907       909       908       907       912       909       907       912
       907       909       910       907       909       911       910       909       911
       907       912       913       907       912       914       907       912       918
       913       912       914       913       912       918       914       912       918
       916       915       917       916       915       918       916       915       919
       917       915       918       917       915       919       918       915       919
       912       918       915       915       919       920       919       920       921
       919       920       922       919       920       923       921       920       922
       921       920       923       922       920       923       920       923       924
       920       923       925       920       923       931       924       923       925
       924       923       931       925       923       931       923       925       926
       925       926       927       925       926       928       927       926       928
       926       928       929       926       928       930       926       928       940
       929       928       930       929       928       940       930       928       940
       923       931       932       923       931       933       923       931       934
       932       931       933       932       931       934       933       931       934
       931       934       935       934       935       936       934       935       937
       936       935       937       935       937       938       935       937       939
       935       937       987       938       937       939       938       937       987
       939       937       987       928       940       941       928       940       942
       928       940       943       941       940       942       941       940       943
       942       940       943       940       943       944       940       943       945
       940       943       946       944       943       945       944       943       946
       945       943       946       943       946       947       943       946       948
       943       946       949       947       946       948       947       946       949
       948       946       949       946       949       950       946       949       951
       946       949       952       950       949       951       950       949       952
       951       949       952       949       952       953       949       952       954
       949       952       955       953       952       954       953       952       955
       954       952       955       952       955       956       952       955       957
       952       955       958       956       955       957       956       955       958
       957       955       958       955       958       959       955       958       960
       959       958       960       958       960       961       958       960       962
       961       960       962       960       962       963       960       962       964
       960       962       965       963       962       964       963       962       965
       964       962       965       962       965       966       962       965       967
       962       965       968       966       965       967       966       965       968
       967       965       968       965       968       969       965       968       970
       965       968       971       969       968       970       969       968       971
       970       968       971       968       971       972       968       971       973
       968       971       974       972       971       973       972       971       974
       973       971       974       971       974       975       971       974       976
       971       974       977       975       974       976       975       974       977
       976       974       977       974       977       978       974       977       979
       974       977       980       978       977       979       978       977       980
       979       977       980       977       980       981       977       980       982
       977       980       983       981       980       982       981       980       983
       982       980       983       980       983       984       980       983       985
       980       983       986       984       983       985       984       983       986
       985       983       986       937       987       988       937       987       989
       937       987       990       988       987       989       988       987       990
       989       987       990       987       990       991       987       990       992
       987       990       993       991       990       992       991       990       993
       992       990       993       990       993       994       990       993       995
       990       993       996       994       993       995       994       993       996
       995       993       996       993       996       997       993       996       998
       993       996       999       997       996       998       997       996       999
       998       996       999       996       999      1000       996       999      1001
       996       999      1002      1000       999      1001      1000       999      1002
      1001       999      1002       999      1002      1003       999      1002      1004
       999      1002      1005      1003      1002      1004      1003      1002      1005
      1004      1002      1005      1002      1005      1006      1002      1005      1007
      1002      1005      1008      1006      1005      1007      1006      1005      1008
      1007      1005      1008      1005      1008      1009      1005      1008      1010
      1005      1008      1011      1009      1008      1010      1009      1008      1011
      1010      1008      1011      1008      1011      1012      1008      1011      1013
      1008      1011      1014      1012      1011      1013      1012      1011      1014
      1013      1011      1014      1011      1014      1015      1011      1014      1016
      1011      1014      1017      1015      1014      1016      1015      1014      1017
      1016      1014      1017      1014      1017      1018      1014      1017      1019
      1014      1017      1020      1018      1017      1019      1018      1017      1020
      1019      1017      1020      1017      1020      1021      1017      1020      1022
      1017      1020      1023      1021      1020      1022      1021      1020      1023
      1022      1020      1023      1020      1023      1024      1020      1023      1025
      1020      1023      1026      1024      1023      1025      1024      1023      1026
      1025      1023      1026      1023      1026      1027      1023      1026      1028
      1023      1026      1029      1027      1026      1028      1027      1026      1029
      1028      1026      1029      1031      1030      1034      1031      1030      1038
      1031      1030      1042      1034      1030      1038      1034      1030      1042
      1038      1030      1042      1030      1031      1032      1030      1031      1033
      1030      1031      1046      1032      1031      1033      1032      1031      1046
      1033      1031      1046      1030      1034      1035      1030      1034      1036
      1030      1034      1037      1035      1034      1036      1035      1034      1037
      1036      1034      1037      1030      1038      1039      1030      1038      1040
      1030      1038      1041      1039      1038      1040      1039      1038      1041
      1040      1038      1041      1030      1042      1043      1030      1042      1044
      1030      1042      1045      1043      1042      1044      1043      1042      1045
      1044      1042      1045      1031      1046      1047      1031      1046      1048
      1031      1046      1052      1047      1046      1048      1047      1046      1052
      1048      1046      1052      1050      1049      1051      1050      1049      1052
      1050      1049      1053      1051      1049      1052      1051      1049      1053
      1052      1049      1053      1046      1052      1049      1049      1053      1054
      1053      1054      1055      1053      1054      1056      1053      1054      1057
      1055      1054      1056      1055      1054      1057      1056      1054      1057
      1054      1057      1058      1054      1057      1059      1054      1057      1065
      1058      1057      1059      1058      1057      1065      1059      1057      1065
      1057      1059      1060      1059      1060      1061      1059      1060      1062
      1061      1060      1062      1060      1062      1063      1060      1062      1064
      1060      1062      1074      1063      1062      1064      1063      1062      1074
      1064      1062      1074      1057      1065      1066      1057      1065      1067
      1057      1065      1068      1066      1065      1067      1066      1065      1068
      1067      1065      1068      1065      1068      1069      1068      1069      1070
      1068      1069      1071      1070      1069      1071      1069      1071      1072
      1069      1071      1073      1069      1071      1121      1072      1071      1073
      1072      1071      1121      1073      1071      1121      1062      1074      1075
      1062      1074      1076      1062      1074      1077      1075      1074      1076
      1075      1074      1077      1076      1074      1077      1074      1077      1078
      1074      1077      1079      1074      1077      1080      1078      1077      1079
      1078      1077      1080      1079      1077      1080      1077      1080      1081
      1077      1080      1082      1077      1080      1083      1081      1080      1082
      1081      1080      1083      1082      1080      1083      1080      1083      1084
      1080      1083      1085      1080      1083      1086      1084      1083      1085
      1084      1083      1086      1085      1083      1086      1083      1086      1087
      1083      1086      1088      1083      1086      1089      1087      1086      1088
      1087      1086      1089      1088      1086      1089      1086      1089      1090
      1086      1089      1091      1086      1089      1092      1090      1089      1091
      1090      1089      1092      1091      1089      1092      1089      1092      1093
      1089      1092      1094      1093      1092      1094      1092      1094      1095
      1092      1094      1096      1095      1094      1096      1094      1096      1097
      1094      1096      1098      1094      1096      1099      1097      1096      1098
      1097      1096      1099      1098      1096      1099      1096      1099      1100
      1096      1099      1101      1096      1099      1102      1100      1099      1101
      1100      1099      1102      1101      1099      1102      1099      1102      1103
      1099      1102      1104      1099      1102      1105      1103      1102      1104
      1103      1102      1105      1104      1102      1105      1102      1105      1106
      1102      1105      1107      1102      1105      1108      1106      1105      1107
      1106      1105      1108      1107      1105      1108      1105      1108      1109
      1105      1108      1110      1105      1108      1111      1109      1108      1110
      1109      1108      1111      1110      1108      1111      1108      1111      1112
      1108      1111      1113      1108      1111      1114      1112      1111      1113
      1112      1111      1114      1113      1111      1114      1111      1114      1115
      1111      1114      1116      1111      1114      1117      1115      1114      1116
      1115      1114      1117      1116      1114      1117      1114      1117      1118
      1114      1117      1119      1114      1117      1120      1118      1117      1119
      1118      1117      1120      1119      1117      1120      1071      1121      1122
      1071      1121      1123      1071      1121      1124      1122      1121      1123
      1122      1121      1124      1123      1121      1124      1121      1124      1125
      1121      1124      1126      1121      1124      1127      1125      1124      1126
      1125      1124      1127      1126      1124      1127      1124      1127      1128
      1124      1127      1129      1124      1127      1130      1128      1127      1129
      1128      1127      1130      1129      1127      1130      1127      1130      1131
      1127      1130      1132      1127      1130      1133      1131      1130      1132
      1131      1130      1133      1132      1130      1133      1130      1133      1134
      1130      1133      1135      1130      1133      1136      1134      1133      1135
      1134      1133      1136      1135      1133      1136      1133      1136      1137
      1133      1136      1138      1133      1136      1139      1137      1136      1138
      1137      1136      1139      1138      1136      1139      1136      1139      1140
      1136      1139      1141      1136      1139      1142      1140      1139      1141
      1140      1139      1142      1141      1139      1142      1139      1142      1143
      1139      1142      1144      1139      1142      1145      1143      1142      1144
      1143      1142      1145      1144      1142      1145      1142      1145      1146
      1142      1145      1147      1142      1145      1148      1146      1145      1147
      1146      1145      1148      1147      1145      1148      1145      1148      1149
      1145      1148      1150      1145      1148      1151      1149      1148      1150
      1149      1148      1151      1150      1148      1151      1148      1151      1152
      1148      1151      1153      1148      1151      1154      1152      1151      1153
      1152      1151      1154      1153      1151      1154      1151      1154      1155
      1151      1154      1156      1151      1154      1157      1155      1154      1156
      1155      1154      1157      1156      1154      1157      1154      1157      1158
      1154      1157      1159      1154      1157      1160      1158      1157      1159
      1158      1157      1160      1159      1157      1160      1157      1160      1161
      1157      1160      1162      1157      1160      1163      1161      1160      1162
      1161      1160      1163      1162      1160      1163      1165      1164      1168
      1165      1164      1172      1165      1164      1176      1168      1164      1172
      1168      1164      1176      1172      1164      1176      1164      1165      1166
      1164      1165      1167      1164      1165      1180      1166      1165      1167
      1166      1165      1180      1167      1165      1180      1164      1168      1169
      1164      1168      1170      1164      1168      1171      1169      1168      1170
      1169      1168      1171      1170      1168      1171      1164      1172      1173
      1164      1172      1174      1164      1172      1175      1173      1172      1174
      1173      1172      1175      1174      1172      1175      1164      1176      1177
      1164      1176      1178      1164      1176      1179      1177      1176      1178
      1177      1176      1179      1178      1176      1179      1165      1180      1181
      1165      1180      1182      1165      1180      1186      1181      1180      1182
      1181      1180      1186      1182      1180      1186      1184      1183      1185
      1184      1183      1186      1184      1183      1187      1185      1183      1186
      1185      1183      1187      1186      1183      1187      1180      1186      1183
      1183      1187      1188      1187      1188      1189      1187      1188      1190
      1187      1188      1191      1189      1188      1190      1189      1188      1191
      1190      1188      1191      1188      1191      1192      1188      1191      1193
      1188      1191      1199      1192      1191      1193      1192      1191      1199
      1193      1191      1199      1191      1193      1194      1193      1194      1195
      1193      1194      1196      1195      1194      1196      1194      1196      1197
      1194      1196      1198      1194      1196      1208      1197      1196      1198
      1197      1196      1208      1198      1196      1208      1191      1199      1200
      1191      1199      1201      1191      1199      1202      1200      1199      1201
      1200      1199      1202      1201      1199      1202      1199      1202      1203
      1202      1203      1204      1202      1203      1205      1204      1203      1205
      1203      1205      1206      1203      1205      1207      1203      1205      1255
      1206      1205      1207      1206      1205      1255      1207      1205      1255
      1196      1208      1209      1196      1208      1210      1196      1208      1211
      1209      1208      1210      1209      1208      1211      1210      1208      1211
      1208      1211      1212      1208      1211      1213      1208      1211      1214
      1212      1211      1213      1212      1211      1214      1213      1211      1214
      1211      1214      1215      1211      1214      1216      1211      1214      1217
      1215      1214      1216      1215      1214      1217      1216      1214      1217
      1214      1217      1218      1214      1217      1219      1214      1217      1220
      1218      1217      1219      1218      1217      1220      1219      1217      1220
      1217      1220      1221      1217      1220      1222      1217      1220      1223
      1221      1220      1222      1221      1220      1223      1222      1220      1223
      1220      1223      1224      1220      1223      1225      1220      1223      1226
      1224      1223      1225      1224      1223      1226      1225      1223      1226
      1223      1226      1227      1223      1226      1228      1227      1226      1228
      1226      1228      1229      1226      1228      1230      1229      1228      1230
      1228      1230      1231      1228      1230      1232      1228      1230      1233
      1231      1230      1232      1231      1230      1233      1232      1230      1233
      1230      1233      1234      1230      1233      1235      1230      1233      1236
      1234      1233      1235      1234      1233      1236      1235      1233      1236
      1233      1236      1237      1233      1236      1238      1233      1236      1239
      1237      1236      1238      1237      1236      1239      1238      1236      1239
      1236      1239      1240      1236      1239      1241      1236      1239      1242
      1240      1239      1241      1240      1239      1242      1241      1239      1242
      1239      1242      1243      1239      1242      1244      1239      1242      1245
      1243      1242      1244      1243      1242      1245      1244      1242      1245
      1242      1245      1246      1242      1245      1247      1242      1245      1248
      1246      1245      1247      1246      1245      1248      1247      1245      1248
      1245      1248      1249      1245      1248      1250      1245      1248      1251
      1249      1248      1250      1249      1248      1251      1250      1248      1251
      1248      1251      1252      1248      1251      1253      1248      1251      1254
      1252      1251      1253      1252      1251      1254      1253      1251      1254
      1205      1255      1256      1205      1255      1257      1205      1255      1258
      1256      1255      1257      1256      1255      1258      1257      1255      1258
      1255      1258      1259      1255      1258      1260      1255      1258      1261
      1259      1258      1260      1259      1258      1261      1260      1258      1261
      1258      1261      1262      1258      1261      1263      1258      1261      1264
      1262      1261      1263      1262      1261      1264      1263      1261      1264
      1261      1264      1265      1261      1264      1266      1261      1264      1267
      1265      1264      1266      1265      1264      1267      1266      1264      1267
      1264      1267      1268      1264      1267      1269      1264      1267      1270
      1268      1267      1269      1268      1267      1270      1269      1267      1270
      1267      1270      1271      1267      1270      1272      1267      1270      1273
      1271      1270      1272      1271      1270      1273      1272      1270      1273
      1270      1273      1274      1270      1273      1275      1270      1273      1276
      1274      1273      1275      1274      1273      1276      1275      1273      1276
      1273      1276      1277      1273      1276      1278      1273      1276      1279
      1277      1276      1278      1277      1276      1279      1278      1276      1279
      1276      1279      1280      1276      1279      1281      1276      1279      1282
      1280      1279      1281      1280      1279      1282      1281      1279      1282
      1279      1282      1283      1279      1282      1284      1279      1282      1285
      1283      1282      1284      1283      1282      1285      1284      1282      1285
      1282      1285      1286      1282      1285      1287      1282      1285      1288
      1286      1285      1287      1286      1285      1288      1287      1285      1288
      1285      1288      1289      1285      1288      1290      1285      1288      1291
      1289      1288      1290      1289      1288      1291      1290      1288      1291
      1288      1291      1292      1288      1291      1293      1288      1291      1294
      1292      1291      1293      1292      1291      1294      1293      1291      1294
      1291      1294      1295      1291      1294      1296      1291      1294      1297
      1295      1294      1296      1295      1294      1297      1296      1294      1297
      1299      1298      1302      1299      1298      1306      1299      1298      1310
      1302      1298      1306      1302      1298      1310      1306      1298      1310
      1298      1299      1300      1298      1299      1301      1298      1299      1314
      1300      1299      1301      1300      1299      1314      1301      1299      1314
      1298      1302      1303      1298      1302      1304      1298      1302      1305
      1303      1302      1304      1303      1302      1305      1304      1302      1305
      1298      1306      1307      1298      1306      1308      1298      1306      1309
      1307      1306      1308      1307      1306      1309      1308      1306      1309
      1298      1310      1311      1298      1310      1312      1298      1310      1313
      1311      1310      1312      1311      1310      1313      1312      1310      1313
      1299      1314      1315      1299      1314      1316      1299      1314      1320
      1315      1314      1316      1315      1314      1320      1316      1314      1320
      1318      1317      1319      1318      1317      1320      1318      1317      1321
      1319      1317      1320      1319      1317      1321      1320      1317      1321
      1314      1320      1317      1317      1321      1322      1321      1322      1323
      1321      1322      1324      1321      1322      1325      1323      1322      1324
      1323      1322      1325      1324      1322      1325      1322      1325      1326
      1322      1325      1327      1322      1325      1333      1326      1325      1327
      1326      1325      1333      1327      1325      1333      1325      1327      1328
      1327      1328      1329      1327      1328      1330      1329      1328      1330
      1328      1330      1331      1328      1330      1332      1328      1330      1342
      1331      1330      1332      1331      1330      1342      1332      1330      1342
      1325      1333      1334      1325      1333      1335      1325      1333      1336
      1334      1333      1335      1334      1333      1336      1335      1333      1336
      1333      1336      1337      1336      1337      1338      1336      1337      1339
      1338      1337      1339      1337      1339      1340      1337      1339      1341
      1337      1339      1389      1340      1339      1341      1340      1339      1389
      1341      1339      1389      1330      1342      1343      1330      1342      1344
      1330      1342      1345      1343      1342      1344      1343      1342      1345
      1344      1342      1345      1342      1345      1346      1342      1345      1347
      1342      1345      1348      1346      1345      1347      1346      1345      1348
      1347      1345      1348      1345      1348      1349      1345      1348      1350
      1345      1348      1351      1349      1348      1350      1349      1348      1351
      1350      1348      1351      1348      1351      1352      1348      1351      1353
      1348      1351      1354      1352      1351      1353      1352      1351      1354
      1353      1351      1354      1351      1354      1355      1351      1354      1356
      1351      1354      1357      1355      1354      1356      1355      1354      1357
      1356      1354      1357      1354      1357      1358      1354      1357      1359
      1354      1357      1360      1358      1357      1359      1358      1357      1360
      1359      1357      1360      1357      1360      1361      1357      1360      1362
      1361      1360      1362      1360      1362      1363      1360      1362      1364
      1363      1362      1364      1362      1364      1365      1362      1364      1366
      1362      1364      1367      1365      1364      1366      1365      1364      1367
      1366      1364      1367      1364      1367      1368      1364      1367      1369
      1364      1367      1370      1368      1367      1369      1368      1367      1370
      1369      1367      1370      1367      1370      1371      1367      1370      1372
      1367      1370      1373      1371      1370      1372      1371      1370      1373
      1372      1370      1373      1370      1373      1374      1370      1373      1375
      1370      1373      1376      1374      1373      1375      1374      1373      1376
      1375      1373      1376      1373      1376      1377      1373      1376      1378
      1373      1376      1379      1377      1376      1378      1377      1376      1379
      1378      1376      1379      1376      1379      1380      1376      1379      1381
      1376      1379      1382      1380      1379      1381      1380      1379      1382
      1381      1379      1382      1379      1382      1383      1379      1382      1384
      1379      1382      1385      1383      1382      1384      1383      1382      1385
      1384      1382      1385      1382      1385      1386      1382      1385      1387
      1382      1385      1388      1386      1385      1387      1386      1385      1388
      1387      1385      1388      1339      1389      1390      1339      1389      1391
      1339      1389      1392      1390      1389      1391      1390      1389      1392
      1391      1389      1392      1389      1392      1393      1389      1392      1394
      1389      1392      1395      1393      1392      1394      1393      1392      1395
      1394      1392      1395      1392      1395      1396      1392      1395      1397
      1392      1395      1398      1396      1395      1397      1396      1395      1398
      1397      1395      1398      1395      1398      1399      1395      1398      1400
      1395      1398      1401      1399      1398      1400      1399      1398      1401
      1400      1398      1401      1398      1401      1402      1398      1401      1403
      1398      1401      1404      1402      1401      1403      1402      1401      1404
      1403      1401      1404      1401      1404      1405      1401      1404      1406
      1401      1404      1407      1405      1404      1406      1405      1404      1407
      1406      1404      1407      1404      1407      1408      1404      1407      1409
      1404      1407      1410      1408      1407      1409      1408      1407      1410
      1409      1407      1410      1407      1410      1411      1407      1410      1412
      1407      1410      1413      1411      1410      1412      1411      1410      1413
      1412      1410      1413      1410      1413      1414      1410      1413      1415
      1410      1413      1416      1414      1413      1415      1414      1413      1416
      1415      1413      1416      1413      1416      1417      1413      1416      1418
      1413      1416      1419      1417      1416      1418      1417      1416      1419
      1418      1416      1419      1416      1419      1420      1416      1419      1421
      1416      1419      1422      1420      1419      1421      1420      1419      1422
      1421      1419      1422      1419      1422      1423      1419      1422      1424
      1419      1422      1425      1423      1422      1424      1423      1422      1425
      1424      1422      1425      1422      1425      1426      1422      1425      1427
      1422      1425      1428      1426      1425      1427      1426      1425      1428
      1427      1425      1428      1425      1428      1429      1425      1428      1430
      1425      1428      1431      1429      1428      1430      1429      1428      1431
      1430      1428      1431      1433      1432      1436      1433      1432      1440
      1433      1432      1444      1436      1432      1440      1436      1432      1444
      1440      1432      1444      1432      1433      1434      1432      1433      1435
      1432      1433      1448      1434      1433      1435      1434      1433      1448
      1435      1433      1448      1432      1436      1437      1432      1436      1438
      1432      1436      1439      1437      1436      1438      1437      1436      1439
      1438      1436      1439      1432      1440      1441      1432      1440      1442
      1432      1440      1443      1441      1440      1442      1441      1440      1443
      1442      1440      1443      1432      1444      1445      1432      1444      1446
      1432      1444      1447      1445      1444      1446      1445      1444      1447
      1446      1444      1447      1433      1448      1449      1433      1448      1450
      1433      1448      1454      1449      1448      1450      1449      1448      1454
      1450      1448      1454      1452      1451      1453      1452      1451      1454
      1452      1451      1455      1453      1451      1454      1453      1451      1455
      1454      1451      1455      1448      1454      1451      1451      1455      1456
      1455      1456      1457      1455      1456      1458      1455      1456      1459
      1457      1456      1458      1457      1456      1459      1458      1456      1459
      1456      1459      1460      1456      1459      1461      1456      1459      1467
      1460      1459      1461      1460      1459      1467      1461      1459      1467
      1459      1461      1462      1461      1462      1463      1461      1462      1464
      1463      1462      1464      1462      1464      1465      1462      1464      1466
      1462      1464      1476      1465      1464      1466      1465      1464      1476
      1466      1464      1476      1459      1467      1468      1459      1467      1469
      1459      1467      1470      1468      1467      1469      1468      1467      1470
      1469      1467      1470      1467      1470      1471      1470      1471      1472
      1470      1471      1473      1472      1471      1473      1471      1473      1474
      1471      1473      1475      1471      1473      1523      1474      1473      1475
      1474      1473      1523      1475      1473      1523      1464      1476      1477
      1464      1476      1478      1464      1476      1479      1477      1476      1478
      1477      1476      1479      1478      1476      1479      1476      1479      1480
      1476      1479      1481      1476      1479      1482      1480      1479      1481
      1480      1479      1482      1481      1479      1482      1479      1482      1483
      1479      1482      1484      1479      1482      1485      1483      1482      1484
      1483      1482      1485      1484      1482      1485      1482      1485      1486
      1482      1485      1487      1482      1485      1488      1486      1485      1487
      1486      1485      1488      1487      1485      1488      1485      1488      1489
      1485      1488      1490      1485      1488      1491      1489      1488      1490
      1489      1488      1491      1490      1488      1491      1488      1491      1492
      1488      1491      1493      1488      1491      1494      1492      1491      1493
      1492      1491      1494      1493      1491      1494      1491      1494      1495
      1491      1494      1496      1495      1494      1496      1494      1496      1497
      1494      1496      1498      1497      1496      1498      1496      1498      1499
      1496      1498      1500      1496      1498      1501      1499      1498      1500
      1499      1498      1501      1500      1498      1501      1498      1501      1502
      1498      1501      1503      1498      1501      1504      1502      1501      1503
      1502      1501      1504      1503      1501      1504      1501      1504      1505
      1501      1504      1506      1501      1504      1507      1505      1504      1506
      1505      1504      1507      1506      1504      1507      1504      1507      1508
      1504      1507      1509      1504      1507      1510      1508      1507      1509
      1508      1507      1510      1509      1507      1510      1507      1510      1511
      1507      1510      1512      1507      1510      1513      1511      1510      1512
      1511      1510      1513      1512      1510      1513      1510      1513      1514
      1510      1513      1515      1510      1513      1516      1514      1513      1515
      1514      1513      1516      1515      1513      1516      1513      1516      1517
      1513      1516      1518      1513      1516      1519      1517      1516      1518
      1517      1516      1519      1518      1516      1519      1516      1519      1520
      1516      1519      1521      1516      1519      1522      1520      1519      1521
      1520      1519      1522      1521      1519      1522      1473      1523      1524
      1473      1523      1525      1473      1523      1526      1524      1523      1525
      1524      1523      1526      1525      1523      1526      1523      1526      1527
      1523      1526      1528      1523      1526      1529      1527      1526      1528
      1527      1526      1529      1528      1526      1529      1526      1529      1530
      1526      1529      1531      1526      1529      1532      1530      1529      1531
      1530      1529      1532      1531      1529      1532      1529      1532      1533
      1529      1532      1534      1529      1532      1535      1533      1532      1534
      1533      1532      1535      1534      1532      1535      1532      1535      1536
      1532      1535      1537      1532      1535      1538      1536      1535      1537
      1536      1535      1538      1537      1535      1538      1535      1538      1539
      1535      1538      1540      1535      1538      1541      1539      1538      1540
      1539      1538      1541      1540      1538      1541      1538      1541      1542
      1538      1541      1543      1538      1541      1544      1542      1541      1543
      1542      1541      1544      1543      1541      1544      1541      1544      1545
      1541      1544      1546      1541      1544      1547      1545      1544      1546
      1545      1544      1547      1546      1544      1547      1544      1547      1548
      1544      1547      1549      1544      1547      1550      1548      1547      1549
      1548      1547      1550      1549      1547      1550      1547      1550      1551
      1547      1550      1552      1547      1550      1553      1551      1550      1552
      1551      1550      1553      1552      1550      1553      1550      1553      1554
      1550      1553      1555      1550      1553      1556      1554      1553      1555
      1554      1553      1556      1555      1553      1556      1553      1556      1557
      1553      1556      1558      1553      1556      1559      1557      1556      1558
      1557      1556      1559      1558      1556      1559      1556      1559      1560
      1556      1559      1561      1556      1559      1562      1560      1559      1561
      1560      1559      1562      1561      1559      1562      1559      1562      1563
      1559      1562      1564      1559      1562      1565      1563      1562      1564
      1563      1562      1565      1564      1562      1565      1567      1566      1570
      1567      1566      1574      1567      1566      1578      1570      1566      1574
      1570      1566      1578      1574      1566      1578      1566      1567      1568
      1566      1567      1569      1566      1567      1582      1568      1567      1569
      1568      1567      1582      1569      1567      1582      1566      1570      1571
      1566      1570      1572      1566      1570      1573      1571      1570      1572
      1571      1570      1573      1572      1570      1573      1566      1574      1575
      1566      1574      1576      1566      1574      1577      1575      1574      1576
      1575      1574      1577      1576      1574      1577      1566      1578      1579
      1566      1578      1580      1566      1578      1581      1579      1578      1580
      1579      1578      1581      1580      1578      1581      1567      1582      1583
      1567      1582      1584      1567      1582      1588      1583      1582      1584
      1583      1582      1588      1584      1582      1588      1586      1585      1587
      1586      1585      1588      1586      1585      1589      1587      1585      1588
      1587      1585      1589      1588      1585      1589      1582      1588      1585
      1585      1589      1590      1589      1590      1591      1589      1590      1592
      1589      1590      1593      1591      1590      1592      1591      1590      1593
      1592      1590      1593      1590      1593      1594      1590      1593      1595
      1590      1593      1601      1594      1593      1595      1594      1593      1601
      1595      1593      1601      1593      1595      1596      1595      1596      1597
      1595      1596      1598      1597      1596      1598      1596      1598      1599
      1596      1598      1600      1596      1598      1610      1599      1598      1600
      1599      1598      1610      1600      1598      1610      1593      1601      1602
      1593      1601      1603      1593      1601      1604      1602      1601      1603
      1602      1601      1604      1603      1601      1604      1601      1604      1605
      1604      1605      1606      1604      1605      1607      1606      1605      1607
      1605      1607      1608      1605      1607      1609      1605      1607      1657
      1608      1607      1609      1608      1607      1657      1609      1607      1657
      1598      1610      1611      1598      1610      1612      1598      1610      1613
      1611      1610      1612      1611      1610      1613      1612      1610      1613
      1610      1613      1614      1610      1613      1615      1610      1613      1616
      1614      1613      1615      1614      1613      1616      1615      1613      1616
      1613      1616      1617      1613      1616      1618      1613      1616      1619
      1617      1616      1618      1617      1616      1619      1618      1616      1619
      1616      1619      1620      1616      1619      1621      1616      1619      1622
      1620      1619      1621      1620      1619      1622      1621      1619      1622
      1619      1622      1623      1619      1622      1624      1619      1622      1625
      1623      1622      1624      1623      1622      1625      1624      1622      1625
      1622      1625      1626      1622      1625      1627      1622      1625      1628
      1626      1625      1627      1626      1625      1628      1627      1625      1628
      1625      1628      1629      1625      1628      1630      1629      1628      1630
      1628      1630      1631      1628      1630      1632      1631      1630      1632
      1630      1632      1633      1630      1632      1634      1630      1632      1635
      1633      1632      1634      1633      1632      1635      1634      1632      1635
      1632      1635      1636      1632      1635      1637      1632      1635      1638
      1636      1635      1637      1636      1635      1638      1637      1635      1638
      1635      1638      1639      1635      1638      1640      1635      1638      1641
      1639      1638      1640      1639      1638      1641      1640      1638      1641
      1638      1641      1642      1638      1641      1643      1638      1641      1644
      1642      1641      1643      1642      1641      1644      1643      1641      1644
      1641      1644      1645      1641      1644      1646      1641      1644      1647
      1645      1644      1646      1645      1644      1647      1646      1644      1647
      1644      1647      1648      1644      1647      1649      1644      1647      1650
      1648      1647      1649      1648      1647      1650      1649      1647      1650
      1647      1650      1651      1647      1650      1652      1647      1650      1653
      1651      1650      1652      1651      1650      1653      1652      1650      1653
      1650      1653      1654      1650      1653      1655      1650      1653      1656
      1654      1653      1655      1654      1653      1656      1655      1653      1656
      1607      1657      1658      1607      1657      1659      1607      1657      1660
      1658      1657      1659      1658      1657      1660      1659      1657      1660
      1657      1660      1661      1657      1660      1662      1657      1660      1663
      1661      1660      1662      1661      1660      1663      1662      1660      1663
      1660      1663      1664      1660      1663      1665      1660      1663      1666
      1664      1663      1665      1664      1663      1666      1665      1663      1666
      1663      1666      1667      1663      1666      1668      1663      1666      1669
      1667      1666      1668      1667      1666      1669      1668      1666      1669
      1666      1669      1670      1666      1669      1671      1666      1669      1672
      1670      1669      1671      1670      1669      1672      1671      1669      1672
      1669      1672      1673      1669      1672      1674      1669      1672      1675
      1673      1672      1674      1673      1672      1675      1674      1672      1675
      1672      1675      1676      1672      1675      1677      1672      1675      1678
      1676      1675      1677      1676      1675      1678      1677      1675      1678
      1675      1678      1679      1675      1678      1680      1675      1678      1681
      1679      1678      1680      1679      1678      1681      1680      1678      1681
      1678      1681      1682      1678      1681      1683      1678      1681      1684
      1682      1681      1683      1682      1681      1684      1683      1681      1684
      1681      1684      1685      1681      1684      1686      1681      1684      1687
      1685      1684      1686      1685      1684      1687      1686      1684      1687
      1684      1687      1688      1684      1687      1689      1684      1687      1690
      1688      1687      1689      1688      1687      1690      1689      1687      1690
      1687      1690      1691      1687      1690      1692      1687      1690      1693
      1691      1690      1692      1691      1690      1693      1692      1690      1693
      1690      1693      1694      1690      1693      1695      1690      1693      1696
      1694      1693      1695      1694      1693      1696      1695      1693      1696
      1693      1696      1697      1693      1696      1698      1693      1696      1699
      1697      1696      1698      1697      1696      1699      1698      1696      1699
      1701      1700      1702      1701      1700      1703      1701      1700      1704
      1702      1700      1703      1702      1700      1704      1703      1700      1704
      1700      1704      1705      1700      1704      1706      1700      1704      1709
      1705      1704      1706      1705      1704      1709      1706      1704      1709
      1704      1706      1707      1704      1706      1708      1707      1706      1708
      1704      1709      1710      1704      1709      1711      1704      1709      1715
      1710      1709      1711      1710      1709      1715      1711      1709      1715
      1713      1712      1714      1713      1712      1715      1713      1712      1716
      1714      1712      1715      1714      1712      1716      1715      1712      1716
      1709      1715      1712      1712      1716      1717      1716      1717      1718
      1716      1717      1719      1716      1717      1720      1718      1717      1719
      1718      1717      1720      1719      1717      1720      1717      1720      1721
      1717      1720      1722      1717      1720      1728      1721      1720      1722
      1721      1720      1728      1722      1720      1728      1720      1722      1723
      1722      1723      1724      1722      1723      1725      1724      1723      1725
      1723      1725      1726      1723      1725      1727      1723      1725      1737
      1726      1725      1727      1726      1725      1737      1727      1725      1737
      1720      1728      1729      1720      1728      1730      1720      1728      1731
      1729      1728      1730      1729      1728      1731      1730      1728      1731
      1728      1731      1732      1731      1732      1733      1731      1732      1734
      1733      1732      1734      1732      1734      1735      1732      1734      1736
      1732      1734      1784      1735      1734      1736      1735      1734      1784
      1736      1734      1784      1725      1737      1738      1725      1737      1739
      1725      1737      1740      1738      1737      1739      1738      1737      1740
      1739      1737      1740      1737      1740      1741      1737      1740      1742
      1737      1740      1743      1741      1740      1742      1741      1740      1743
      1742      1740      1743      1740      1743      1744      1740      1743      1745
      1740      1743      1746      1744      1743      1745      1744      1743      1746
      1745      1743      1746      1743      1746      1747      1743      1746      1748
      1743      1746      1749      1747      1746      1748      1747      1746      1749
      1748      1746      1749      1746      1749      1750      1746      1749      1751
      1746      1749      1752      1750      1749      1751      1750      1749      1752
      1751      1749      1752      1749      1752      1753      1749      1752      1754
      1749      1752      1755      1753      1752      1754      1753      1752      1755
      1754      1752      1755      1752      1755      1756      1752      1755      1757
      1756      1755      1757      1755      1757      1758      1755      1757      1759
      1758      1757      1759      1757      1759      1760      1757      1759      1761
      1757      1759      1762      1760      1759      1761      1760      1759      1762
      1761      1759      1762      1759      1762      1763      1759      1762      1764
      1759      1762      1765      1763      1762      1764      1763      1762      1765
      1764      1762      1765      1762      1765      1766      1762      1765      1767
      1762      1765      1768      1766      1765      1767      1766      1765      1768
      1767      1765      1768      1765      1768      1769      1765      1768      1770
      1765      1768      1771      1769      1768      1770      1769      1768      1771
      1770      1768      1771      1768      1771      1772      1768      1771      1773
      1768      1771      1774      1772      1771      1773      1772      1771      1774
      1773      1771      1774      1771      1774      1775      1771      1774      1776
      1771      1774      1777      1775      1774      1776      1775      1774      1777
      1776      1774      1777      1774      1777      1778      1774      1777      1779
      1774      1777      1780      1778      1777      1779      1778      1777      1780
      1779      1777      1780      1777      1780      1781      1777      1780      1782
      1777      1780      1783      1781      1780      1782      1781      1780      1783
      1782      1780      1783      1734      1784      1785      1734      1784      1786
      1734      1784      1787      1785      1784      1786      1785      1784      1787
      1786      1784      1787      1784      1787      1788      1784      1787      1789
      1784      1787      1790      1788      1787      1789      1788      1787      1790
      1789      1787      1790      1787      1790      1791      1787      1790      1792
      1787      1790      1793      1791      1790      1792      1791      1790      1793
      1792      1790      1793      1790      1793      1794      1790      1793      1795
      1790      1793      1796      1794      1793      1795      1794      1793      1796
      1795      1793      1796      1793      1796      1797      1793      1796      1798
      1793      1796      1799      1797      1796      1798      1797      1796      1799
      1798      1796      1799      1796      1799      1800      1796      1799      1801
      1796      1799      1802      1800      1799      1801      1800      1799      1802
      1801      1799      1802      1799      1802      1803      1799      1802      1804
      1799      1802      1805      1803      1802      1804      1803      1802      1805
      1804      1802      1805      1802      1805      1806      1802      1805      1807
      1802      1805      1808      1806      1805      1807      1806      1805      1808
      1807      1805      1808      1805      1808      1809      1805      1808      1810
      1805      1808      1811      1809      1808      1810      1809      1808      1811
      1810      1808      1811      1808      1811      1812      1808      1811      1813
      1808      1811      1814      1812      1811      1813      1812      1811      1814
      1813      1811      1814      1811      1814      1815      1811      1814      1816
      1811      1814      1817      1815      1814      1816      1815      1814      1817
      1816      1814      1817      1814      1817      1818      1814      1817      1819
      1814      1817      1820      1818      1817      1819      1818      1817      1820
      1819      1817      1820      1817      1820      1821      1817      1820      1822
      1817      1820      1823      1821      1820      1822      1821      1820      1823
      1822      1820      1823      1820      1823      1824      1820      1823      1825
      1820      1823      1826      1824      1823      1825      1824      1823      1826
      1825      1823      1826      1828      1827      1831      1828      1827      1835
      1828      1827      1839      1831      1827      1835      1831      1827      1839
      1835      1827      1839      1827      1828      1829      1827      1828      1830
      1827      1828      1843      1829      1828      1830      1829      1828      1843
      1830      1828      1843      1827      1831      1832      1827      1831      1833
      1827      1831      1834      1832      1831      1833      1832      1831      1834
      1833      1831      1834      1827      1835      1836      1827      1835      1837
      1827      1835      1838      1836      1835      1837      1836      1835      1838
      1837      1835      1838      1827      1839      1840      1827      1839      1841
      1827      1839      1842      1840      1839      1841      1840      1839      1842
      1841      1839      1842      1828      1843      1844      1828      1843      1845
      1828      1843      1849      1844      1843      1845      1844      1843      1849
      1845      1843      1849      1847      1846      1848      1847      1846      1849
      1847      1846      1850      1848      1846      1849      1848      1846      1850
      1849      1846      1850      1843      1849      1846      1846      1850      1851
      1850      1851      1852      1850      1851      1853      1850      1851      1854
      1852      1851      1853      1852      1851      1854      1853      1851      1854
      1851      1854      1855      1851      1854      1856      1851      1854      1862
      1855      1854      1856      1855      1854      1862      1856      1854      1862
      1854      1856      1857      1856      1857      1858      1856      1857      1859
      1858      1857      1859      1857      1859      1860      1857      1859      1861
      1857      1859      1871      1860      1859      1861      1860      1859      1871
      1861      1859      1871      1854      1862      1863      1854      1862      1864
      1854      1862      1865      1863      1862      1864      1863      1862      1865
      1864      1862      1865      1862      1865      1866      1865      1866      1867
      1865      1866      1868      1867      1866      1868      1866      1868      1869
      1866      1868      1870      1866      1868      1918      1869      1868      1870
      1869      1868      1918      1870      1868      1918      1859      1871      1872
      1859      1871      1873      1859      1871      1874      1872      1871      1873
      1872      1871      1874      1873      1871      1874      1871      1874      1875
      1871      1874      1876      1871      1874      1877      1875      1874      1876
      1875      1874      1877      1876      1874      1877      1874      1877      1878
      1874      1877      1879      1874      1877      1880      1878      1877      1879
      1878      1877      1880      1879      1877      1880      1877      1880      1881
      1877      1880      1882      1877      1880      1883      1881      1880      1882
      1881      1880      1883      1882      1880      1883      1880      1883      1884
      1880      1883      1885      1880      1883      1886      1884      1883      1885
      1884      1883      1886      1885      1883      1886      1883      1886      1887
      1883      1886      1888      1883      1886      1889      1887      1886      1888
      1887      1886      1889      1888      1886      1889      1886      1889      1890
      1886      1889      1891      1890      1889      1891      1889      1891      1892
      1889      1891      1893      1892      1891      1893      1891      1893      1894
      1891      1893      1895      1891      1893      1896      1894      1893      1895
      1894      1893      1896      1895      1893      1896      1893      1896      1897
      1893      1896      1898      1893      1896      1899      1897      1896      1898
      1897      1896      1899      1898      1896      1899      1896      1899      1900
      1896      1899      1901      1896      1899      1902      1900      1899      1901
      1900      1899      1902      1901      1899      1902      1899      1902      1903
      1899      1902      1904      1899      1902      1905      1903      1902      1904
      1903      1902      1905      1904      1902      1905      1902      1905      1906
      1902      1905      1907      1902      1905      1908      1906      1905      1907
      1906      1905      1908      1907      1905      1908      1905      1908      1909
      1905      1908      1910      1905      1908      1911      1909      1908      1910
      1909      1908      1911      1910      1908      1911      1908      1911      1912
      1908      1911      1913      1908      1911      1914      1912      1911      1913
      1912      1911      1914      1913      1911      1914      1911      1914      1915
      1911      1914      1916      1911      1914      1917      1915      1914      1916
      1915      1914      1917      1916      1914      1917      1868      1918      1919
      1868      1918      1920      1868      1918      1921      1919      1918      1920
      1919      1918      1921      1920      1918      1921      1918      1921      1922
      1918      1921      1923      1918      1921      1924      1922      1921      1923
      1922      1921      1924      1923      1921      1924      1921      1924      1925
      1921      1924      1926      1921      1924      1927      1925      1924      1926
      1925      1924      1927      1926      1924      1927      1924      1927      1928
      1924      1927      1929      1924      1927      1930      1928      1927      1929
      1928      1927      1930      1929      1927      1930      1927      1930      1931
      1927      1930      1932      1927      1930      1933      1931      1930      1932
      1931      1930      1933      1932      1930      1933      1930      1933      1934
      1930      1933      1935      1930      1933      1936      1934      1933      1935
      1934      1933      1936      1935      1933      1936      1933      1936      1937
      1933      1936      1938      1933      1936      1939      1937      1936      1938
      1937      1936      1939      1938      1936      1939      1936      1939      1940
      1936      1939      1941      1936      1939      1942      1940      1939      1941
      1940      1939      1942      1941      1939      1942      1939      1942      1943
      1939      1942      1944      1939      1942      1945      1943      1942      1944
      1943      1942      1945      1944      1942      1945      1942      1945      1946
      1942      1945      1947      1942      1945      1948      1946      1945      1947
      1946      1945      1948      1947      1945      1948      1945      1948      1949
      1945      1948      1950      1945      1948      1951      1949      1948      1950
      1949      1948      1951      1950      1948      1951      1948      1951      1952
      1948      1951      1953      1948      1951      1954      1952      1951      1953
      1952      1951      1954      1953      1951      1954      1951      1954      1955
      1951      1954      1956      1951      1954      1957      1955      1954      1956
      1955      1954      1957      1956      1954      1957      1954      1957      1958
      1954      1957      1959      1954      1957      1960      1958      1957      1959
      1958      1957      1960      1959      1957      1960      1962      1961      1965
      1962      1961      1969      1962      1961      1973      1965      1961      1969
      1965      1961      1973      1969      1961      1973      1961      1962      1963
      1961      1962      1964      1961      1962      1977      1963      1962      1964
      1963      1962      1977      1964      1962      1977      1961      1965      1966
      1961      1965      1967      1961      1965      1968      1966      1965      1967
      1966      1965      1968      1967      1965      1968      1961      1969      1970
      1961      1969      1971      1961      1969      1972      1970      1969      1971
      1970      1969      1972      1971      1969      1972      1961      1973      1974
      1961      1973      1975      1961      1973      1976      1974      1973      1975
      1974      1973      1976      1975      1973      1976      1962      1977      1978
      1962      1977      1979      1962      1977      1983      1978      1977      1979
      1978      1977      1983      1979      1977      1983      1981      1980      1982
      1981      1980      1983      1981      1980      1984      1982      1980      1983
      1982      1980      1984      1983      1980      1984      1977      1983      1980
      1980      1984      1985      1984      1985      1986      1984      1985      1987
      1984      1985      1988      1986      1985      1987      1986      1985      1988
      1987      1985      1988      1985      1988      1989      1985      1988      1990
      1985      1988      1996      1989      1988      1990      1989      1988      1996
      1990      1988      1996      1988      1990      1991      1990      1991      1992
      1990      1991      1993      1992      1991      1993      1991      1993      1994
      1991      1993      1995      1991      1993      2005      1994      1993      1995
      1994      1993      2005      1995      1993      2005      1988      1996      1997
      1988      1996      1998      1988      1996      1999      1997      1996      1998
      1997      1996      1999      1998      1996      1999      1996      1999      2000
      1999      2000      2001      1999      2000      2002      2001      2000      2002
      2000      2002      2003      2000      2002      2004      2000      2002      2052
      2003      2002      2004      2003      2002      2052      2004      2002      2052
      1993      2005      2006      1993      2005      2007      1993      2005      2008
      2006      2005      2007      2006      2005      2008      2007      2005      2008
      2005      2008      2009      2005      2008      2010      2005      2008      2011
      2009      2008      2010      2009      2008      2011      2010      2008      2011
      2008      2011      2012      2008      2011      2013      2008      2011      2014
      2012      2011      2013      2012      2011      2014      2013      2011      2014
      2011      2014      2015      2011      2014      2016      2011      2014      2017
      2015      2014      2016      2015      2014      2017      2016      2014      2017
      2014      2017      2018      2014      2017      2019      2014      2017      2020
      2018      2017      2019      2018      2017      2020      2019      2017      2020
      2017      2020      2021      2017      2020      2022      2017      2020      2023
      2021      2020      2022      2021      2020      2023      2022      2020      2023
      2020      2023      2024      2020      2023      2025      2024      2023      2025
      2023      2025      2026      2023      2025      2027      2026      2025      2027
      2025      2027      2028      2025      2027      2029      2025      2027      2030
      2028      2027      2029      2028      2027      2030      2029      2027      2030
      2027      2030      2031      2027      2030      2032      2027      2030      2033
      2031      2030      2032      2031      2030      2033      2032      2030      2033
      2030      2033      2034      2030      2033      2035      2030      2033      2036
      2034      2033      2035      2034      2033      2036      2035      2033      2036
      2033      2036      2037      2033      2036      2038      2033      2036      2039
      2037      2036      2038      2037      2036      2039      2038      2036      2039
      2036      2039      2040      2036      2039      2041      2036      2039      2042
      2040      2039      2041      2040      2039      2042      2041      2039      2042
      2039      2042      2043      2039      2042      2044      2039      2042      2045
      2043      2042      2044      2043      2042      2045      2044      2042      2045
      2042      2045      2046      2042      2045      2047      2042      2045      2048
      2046      2045      2047      2046      2045      2048      2047      2045      2048
      2045      2048      2049      2045      2048      2050      2045      2048      2051
      2049      2048      2050      2049      2048      2051      2050      2048      2051
      2002      2052      2053      2002      2052      2054      2002      2052      2055
      2053      2052      2054      2053      2052      2055      2054      2052      2055
      2052      2055      2056      2052      2055      2057      2052      2055      2058
      2056      2055      2057      2056      2055      2058      2057      2055      2058
      2055      2058      2059      2055      2058      2060      2055      2058      2061
      2059      2058      2060      2059      2058      2061      2060      2058      2061
      2058      2061      2062      2058      2061      2063      2058      2061      2064
      2062      2061      2063      2062      2061      2064      2063      2061      2064
      2061      2064      2065      2061      2064      2066      2061      2064      2067
      2065      2064      2066      2065      2064      2067      2066      2064      2067
      2064      2067      2068      2064      2067      2069      2064      2067      2070
      2068      2067      2069      2068      2067      2070      2069      2067      2070
      2067      2070      2071      2067      2070      2072      2067      2070      2073
      2071      2070      2072      2071      2070      2073      2072      2070      2073
      2070      2073      2074      2070      2073      2075      2070      2073      2076
      2074      2073      2075      2074      2073      2076      2075      2073      2076
      2073      2076      2077      2073      2076      2078      2073      2076      2079
      2077      2076      2078      2077      2076      2079      2078      2076      2079
      2076      2079      2080      2076      2079      2081      2076      2079      2082
      2080      2079      2081      2080      2079      2082      2081      2079      2082
      2079      2082      2083      2079      2082      2084      2079      2082      2085
      2083      2082      2084      2083      2082      2085      2084      2082      2085
      2082      2085      2086      2082      2085      2087      2082      2085      2088
      2086      2085      2087      2086      2085      2088      2087      2085      2088
      2085      2088      2089      2085      2088      2090      2085      2088      2091
      2089      2088      2090      2089      2088      2091      2090      2088      2091
      2088      2091      2092      2088      2091      2093      2088      2091      2094
      2092      2091      2093      2092      2091      2094      2093      2091      2094
      2096      2095      2099      2096      2095      2103      2096      2095      2107
      2099      2095      2103      2099      2095      2107      2103      2095      2107
      2095      2096      2097      2095      2096      2098      2095      2096      2111
      2097      2096      2098      2097      2096      2111      2098      2096      2111
      2095      2099      2100      2095      2099      2101      2095      2099      2102
      2100      2099      2101      2100      2099      2102      2101      2099      2102
      2095      2103      2104      2095      2103      2105      2095      2103      2106
      2104      2103      2105      2104      2103      2106      2105      2103      2106
      2095      2107      2108      2095      2107      2109      2095      2107      2110
      2108      2107      2109      2108      2107      2110      2109      2107      2110
      2096      2111      2112      2096      2111      2113      2096      2111      2117
      2112      2111      2113      2112      2111      2117      2113      2111      2117
      2115      2114      2116      2115      2114      2117      2115      2114      2118
      2116      2114      2117      2116      2114      2118      2117      2114      2118
      2111      2117      2114      2114      2118      2119      2118      2119      2120
      2118      2119      2121      2118      2119      2122      2120      2119      2121
      2120      2119      2122      2121      2119      2122      2119      2122      2123
      2119      2122      2124      2119      2122      2130      2123      2122      2124
      2123      2122      2130      2124      2122      2130      2122      2124      2125
      2124      2125      2126      2124      2125      2127      2126      2125      2127
      2125      2127      2128      2125      2127      2129      2125      2127      2139
      2128      2127      2129      2128      2127      2139      2129      2127      2139
      2122      2130      2131      2122      2130      2132      2122      2130      2133
      2131      2130      2132      2131      2130      2133      2132      2130      2133
      2130      2133      2134      2133      2134      2135      2133      2134      2136
      2135      2134      2136      2134      2136      2137      2134      2136      2138
      2134      2136      2186      2137      2136      2138      2137      2136      2186
      2138      2136      2186      2127      2139      2140      2127      2139      2141
      2127      2139      2142      2140      2139      2141      2140      2139      2142
      2141      2139      2142      2139      2142      2143      2139      2142      2144
      2139      2142      2145      2143      2142      2144      2143      2142      2145
      2144      2142      2145      2142      2145      2146      2142      2145      2147
      2142      2145      2148      2146      2145      2147      2146      2145      2148
      2147      2145      2148      2145      2148      2149      2145      2148      2150
      2145      2148      2151      2149      2148      2150      2149      2148      2151
      2150      2148      2151      2148      2151      2152      2148      2151      2153
      2148      2151      2154      2152      2151      2153      2152      2151      2154
      2153      2151      2154      2151      2154      2155      2151      2154      2156
      2151      2154      2157      2155      2154      2156      2155      2154      2157
      2156      2154      2157      2154      2157      2158      2154      2157      2159
      2158      2157      2159      2157      2159      2160      2157      2159      2161
      2160      2159      2161      2159      2161      2162      2159      2161      2163
      2159      2161      2164      2162      2161      2163      2162      2161      2164
      2163      2161      2164      2161      2164      2165      2161      2164      2166
      2161      2164      2167      2165      2164      2166      2165      2164      2167
      2166      2164      2167      2164      2167      2168      2164      2167      2169
      2164      2167      2170      2168      2167      2169      2168      2167      2170
      2169      2167      2170      2167      2170      2171      2167      2170      2172
      2167      2170      2173      2171      2170      2172      2171      2170      2173
      2172      2170      2173      2170      2173      2174      2170      2173      2175
      2170      2173      2176      2174      2173      2175      2174      2173      2176
      2175      2173      2176      2173      2176      2177      2173      2176      2178
      2173      2176      2179      2177      2176      2178      2177      2176      2179
      2178      2176      2179      2176      2179      2180      2176      2179      2181
      2176      2179      2182      2180      2179      2181      2180      2179      2182
      2181      2179      2182      2179      2182      2183      2179      2182      2184
      2179      2182      2185      2183      2182      2184      2183      2182      2185
      2184      2182      2185      2136      2186      2187      2136      2186      2188
      2136      2186      2189      2187      2186      2188      2187      2186      2189
      2188      2186      2189      2186      2189      2190      2186      2189      2191
      2186      2189      2192      2190      2189      2191      2190      2189      2192
      2191      2189      2192      2189      2192      2193      2189      2192      2194
      2189      2192      2195      2193      2192      2194      2193      2192      2195
      2194      2192      2195      2192      2195      2196      2192      2195      2197
      2192      2195      2198      2196      2195      2197      2196      2195      2198
      2197      2195      2198      2195      2198      2199      2195      2198      2200
      2195      2198      2201      2199      2198      2200      2199      2198      2201
      2200      2198      2201      2198      2201      2202      2198      2201      2203
      2198      2201      2204      2202      2201      2203      2202      2201      2204
      2203      2201      2204      2201      2204      2205      2201      2204      2206
      2201      2204      2207      2205      2204      2206      2205      2204      2207
      2206      2204      2207      2204      2207      2208      2204      2207      2209
      2204      2207      2210      2208      2207      2209      2208      2207      2210
      2209      2207      2210      2207      2210      2211      2207      2210      2212
      2207      2210      2213      2211      2210      2212      2211      2210      2213
      2212      2210      2213      2210      2213      2214      2210      2213      2215
      2210      2213      2216      2214      2213      2215      2214      2213      2216
      2215      2213      2216      2213      2216      2217      2213      2216      2218
      2213      2216      2219      2217      2216      2218      2217      2216      2219
      2218      2216      2219      2216      2219      2220      2216      2219      2221
      2216      2219      2222      2220      2219      2221      2220      2219      2222
      2221      2219      2222      2219      2222      2223      2219      2222      2224
      2219      2222      2225      2223      2222      2224      2223      2222      2225
      2224      2222      2225      2222      2225      2226      2222      2225      2227
      2222      2225      2228      2226      2225      2227      2226      2225      2228
      2227      2225      2228      2230      2229      2233      2230      2229      2237
      2230      2229      2241      2233      2229      2237      2233      2229      2241
      2237      2229      2241      2229      2230      2231      2229      2230      2232
      2229      2230      2245      2231      2230      2232      2231      2230      2245
      2232      2230      2245      2229      2233      2234      2229      2233      2235
      2229      2233      2236      2234      2233      2235      2234      2233      2236
      2235      2233      2236      2229      2237      2238      2229      2237      2239
      2229      2237      2240      2238      2237      2239      2238      2237      2240
      2239      2237      2240      2229      2241      2242      2229      2241      2243
      2229      2241      2244      2242      2241      2243      2242      2241      2244
      2243      2241      2244      2230      2245      2246      2230      2245      2247
      2230      2245      2251      2246      2245      2247      2246      2245      2251
      2247      2245      2251      2249      2248      2250      2249      2248      2251
      2249      2248      2252      2250      2248      2251      2250      2248      2252
      2251      2248      2252      2245      2251      2248      2248      2252      2253
      2252      2253      2254      2252      2253      2255      2252      2253      2256
      2254      2253      2255      2254      2253      2256      2255      2253      2256
      2253      2256      2257      2253      2256      2258      2253      2256      2264
      2257      2256      2258      2257      2256      2264      2258      2256      2264
      2256      2258      2259      2258      2259      2260      2258      2259      2261
      2260      2259      2261      2259      2261      2262      2259      2261      2263
      2259      2261      2273      2262      2261      2263      2262      2261      2273
      2263      2261      2273      2256      2264      2265      2256      2264      2266
      2256      2264      2267      2265      2264      2266      2265      2264      2267
      2266      2264      2267      2264      2267      2268      2267      2268      2269
      2267      2268      2270      2269      2268      2270      2268      2270      2271
      2268      2270      2272      2268      2270      2320      2271      2270      2272
      2271      2270      2320      2272      2270      2320      2261      2273      2274
      2261      2273      2275      2261      2273      2276      2274      2273      2275
      2274      2273      2276      2275      2273      2276      2273      2276      2277
      2273      2276      2278      2273      2276      2279      2277      2276      2278
      2277      2276      2279      2278      2276      2279      2276      2279      2280
      2276      2279      2281      2276      2279      2282      2280      2279      2281
      2280      2279      2282      2281      2279      2282      2279      2282      2283
      2279      2282      2284      2279      2282      2285      2283      2282      2284
      2283      2282      2285      2284      2282      2285      2282      2285      2286
      2282      2285      2287      2282      2285      2288      2286      2285      2287
      2286      2285      2288      2287      2285      2288      2285      2288      2289
      2285      2288      2290      2285      2288      2291      2289      2288      2290
      2289      2288      2291      2290      2288      2291      2288      2291      2292
      2288      2291      2293      2292      2291      2293      2291      2293      2294
      2291      2293      2295      2294      2293      2295      2293      2295      2296
      2293      2295      2297      2293      2295      2298      2296      2295      2297
      2296      2295      2298      2297      2295      2298      2295      2298      2299
      2295      2298      2300      2295      2298      2301      2299      2298      2300
      2299      2298      2301      2300      2298      2301      2298      2301      2302
      2298      2301      2303      2298      2301      2304      2302      2301      2303
      2302      2301      2304      2303      2301      2304      2301      2304      2305
      2301      2304      2306      2301      2304      2307      2305      2304      2306
      2305      2304      2307      2306      2304      2307      2304      2307      2308
      2304      2307      2309      2304      2307      2310      2308      2307      2309
      2308      2307      2310      2309      2307      2310      2307      2310      2311
      2307      2310      2312      2307      2310      2313      2311      2310      2312
      2311      2310      2313      2312      2310      2313      2310      2313      2314
      2310      2313      2315      2310      2313      2316      2314      2313      2315
      2314      2313      2316      2315      2313      2316      2313      2316      2317
      2313      2316      2318      2313      2316      2319      2317      2316      2318
      2317      2316      2319      2318      2316      2319      2270      2320      2321
      2270      2320      2322      2270      2320      2323      2321      2320      2322
      2321      2320      2323      2322      2320      2323      2320      2323      2324
      2320      2323      2325      2320      2323      2326      2324      2323      2325
      2324      2323      2326      2325      2323      2326      2323      2326      2327
      2323      2326      2328      2323      2326      2329      2327      2326      2328
      2327      2326      2329      2328      2326      2329      2326      2329      2330
      2326      2329      2331      2326      2329      2332      2330      2329      2331
      2330      2329      2332      2331      2329      2332      2329      2332      2333
      2329      2332      2334      2329      2332      2335      2333      2332      2334
      2333      2332      2335      2334      2332      2335      2332      2335      2336
      2332      2335      2337      2332      2335      2338      2336      2335      2337
      2336      2335      2338      2337      2335      2338      2335      2338      2339
      2335      2338      2340      2335      2338      2341      2339      2338      2340
      2339      2338      2341      2340      2338      2341      2338      2341      2342
      2338      2341      2343      2338      2341      2344      2342      2341      2343
      2342      2341      2344      2343      2341      2344      2341      2344      2345
      2341      2344      2346      2341      2344      2347      2345      2344      2346
      2345      2344      2347      2346      2344      2347      2344      2347      2348
      2344      2347      2349      2344      2347      2350      2348      2347      2349
      2348      2347      2350      2349      2347      2350      2347      2350      2351
      2347      2350      2352      2347      2350      2353      2351      2350      2352
      2351      2350      2353      2352      2350      2353      2350      2353      2354
      2350      2353      2355      2350      2353      2356      2354      2353      2355
      2354      2353      2356      2355      2353      2356      2353      2356      2357
      2353      2356      2358      2353      2356      2359      2357      2356      2358
      2357      2356      2359      2358      2356      2359      2356      2359      2360
      2356      2359      2361      2356      2359      2362      2360      2359      2361
      2360      2359      2362      2361      2359      2362      2364      2363      2367
      2364      2363      2371      2364      2363      2375      2367      2363      2371
      2367      2363      2375      2371      2363      2375      2363      2364      2365
      2363      2364      2366      2363      2364      2379      2365      2364      2366
      2365      2364      2379      2366      2364      2379      2363      2367      2368
      2363      2367      2369      2363      2367      2370      2368      2367      2369
      2368      2367      2370      2369      2367      2370      2363      2371      2372
      2363      2371      2373      2363      2371      2374      2372      2371      2373
      2372      2371      2374      2373      2371      2374      2363      2375      2376
      2363      2375      2377      2363      2375      2378      2376      2375      2377
      2376      2375      2378      2377      2375      2378      2364      2379      2380
      2364      2379      2381      2364      2379      2385      2380      2379      2381
      2380      2379      2385      2381      2379      2385      2383      2382      2384
      2383      2382      2385      2383      2382      2386      2384      2382      2385
      2384      2382      2386      2385      2382      2386      2379      2385      2382
      2382      2386      2387      2386      2387      2388      2386      2387      2389
      2386      2387      2390      2388      2387      2389      2388      2387      2390
      2389      2387      2390      2387      2390      2391      2387      2390      2392
      2387      2390      2398      2391      2390      2392      2391      2390      2398
      2392      2390      2398      2390      2392      2393      2392      2393      2394
      2392      2393      2395      2394      2393      2395      2393      2395      2396
      2393      2395      2397      2393      2395      2407      2396      2395      2397
      2396      2395      2407      2397      2395      2407      2390      2398      2399
      2390      2398      2400      2390      2398      2401      2399      2398      2400
      2399      2398      2401      2400      2398      2401      2398      2401      2402
      2401      2402      2403      2401      2402      2404      2403      2402      2404
      2402      2404      2405      2402      2404      2406      2402      2404      2454
      2405      2404      2406      2405      2404      2454      2406      2404      2454
      2395      2407      2408      2395      2407      2409      2395      2407      2410
      2408      2407      2409      2408      2407      2410      2409      2407      2410
      2407      2410      2411      2407      2410      2412      2407      2410      2413
      2411      2410      2412      2411      2410      2413      2412      2410      2413
      2410      2413      2414      2410      2413      2415      2410      2413      2416
      2414      2413      2415      2414      2413      2416      2415      2413      2416
      2413      2416      2417      2413      2416      2418      2413      2416      2419
      2417      2416      2418      2417      2416      2419      2418      2416      2419
      2416      2419      2420      2416      2419      2421      2416      2419      2422
      2420      2419      2421      2420      2419      2422      2421      2419      2422
      2419      2422      2423      2419      2422      2424      2419      2422      2425
      2423      2422      2424      2423      2422      2425      2424      2422      2425
      2422      2425      2426      2422      2425      2427      2426      2425      2427
      2425      2427      2428      2425      2427      2429      2428      2427      2429
      2427      2429      2430      2427      2429      2431      2427      2429      2432
      2430      2429      2431      2430      2429      2432      2431      2429      2432
      2429      2432      2433      2429      2432      2434      2429      2432      2435
      2433      2432      2434      2433      2432      2435      2434      2432      2435
      2432      2435      2436      2432      2435      2437      2432      2435      2438
      2436      2435      2437      2436      2435      2438      2437      2435      2438
      2435      2438      2439      2435      2438      2440      2435      2438      2441
      2439      2438      2440      2439      2438      2441      2440      2438      2441
      2438      2441      2442      2438      2441      2443      2438      2441      2444
      2442      2441      2443      2442      2441      2444      2443      2441      2444
      2441      2444      2445      2441      2444      2446      2441      2444      2447
      2445      2444      2446      2445      2444      2447      2446      2444      2447
      2444      2447      2448      2444      2447      2449      2444      2447      2450
      2448      2447      2449      2448      2447      2450      2449      2447      2450
      2447      2450      2451      2447      2450      2452      2447      2450      2453
      2451      2450      2452      2451      2450      2453      2452      2450      2453
      2404      2454      2455      2404      2454      2456      2404      2454      2457
      2455      2454      2456      2455      2454      2457      2456      2454      2457
      2454      2457      2458      2454      2457      2459      2454      2457      2460
      2458      2457      2459      2458      2457      2460      2459      2457      2460
      2457      2460      2461      2457      2460      2462      2457      2460      2463
      2461      2460      2462      2461      2460      2463      2462      2460      2463
      2460      2463      2464      2460      2463      2465      2460      2463      2466
      2464      2463      2465      2464      2463      2466      2465      2463      2466
      2463      2466      2467      2463      2466      2468      2463      2466      2469
      2467      2466      2468      2467      2466      2469      2468      2466      2469
      2466      2469      2470      2466      2469      2471      2466      2469      2472
      2470      2469      2471      2470      2469      2472      2471      2469      2472
      2469      2472      2473      2469      2472      2474      2469      2472      2475
      2473      2472      2474      2473      2472      2475      2474      2472      2475
      2472      2475      2476      2472      2475      2477      2472      2475      2478
      2476      2475      2477      2476      2475      2478      2477      2475      2478
      2475      2478      2479      2475      2478      2480      2475      2478      2481
      2479      2478      2480      2479      2478      2481      2480      2478      2481
      2478      2481      2482      2478      2481      2483      2478      2481      2484
      2482      2481      2483      2482      2481      2484      2483      2481      2484
      2481      2484      2485      2481      2484      2486      2481      2484      2487
      2485      2484      2486      2485      2484      2487      2486      2484      2487
      2484      2487      2488      2484      2487      2489      2484      2487      2490
      2488      2487      2489      2488      2487      2490      2489      2487      2490
      2487      2490      2491      2487      2490      2492      2487      2490      2493
      2491      2490      2492      2491      2490      2493      2492      2490      2493
      2490      2493      2494      2490      2493      2495      2490      2493      2496
      2494      2493      2495      2494      2493      2496      2495      2493      2496
      2498      2497      2501      2498      2497      2505      2498      2497      2509
      2501      2497      2505      2501      2497      2509      2505      2497      2509
      2497      2498      2499      2497      2498      2500      2497      2498      2513
      2499      2498      2500      2499      2498      2513      2500      2498      2513
      2497      2501      2502      2497      2501      2503      2497      2501      2504
      2502      2501      2503      2502      2501      2504      2503      2501      2504
      2497      2505      2506      2497      2505      2507      2497      2505      2508
      2506      2505      2507      2506      2505      2508      2507      2505      2508
      2497      2509      2510      2497      2509      2511      2497      2509      2512
      2510      2509      2511      2510      2509      2512      2511      2509      2512
      2498      2513      2514      2498      2513      2515      2498      2513      2519
      2514      2513      2515      2514      2513      2519      2515      2513      2519
      2517      2516      2518      2517      2516      2519      2517      2516      2520
      2518      2516      2519      2518      2516      2520      2519      2516      2520
      2513      2519      2516      2516      2520      2521      2520      2521      2522
      2520      2521      2523      2520      2521      2524      2522      2521      2523
      2522      2521      2524      2523      2521      2524      2521      2524      2525
      2521      2524      2526      2521      2524      2532      2525      2524      2526
      2525      2524      2532      2526      2524      2532      2524      2526      2527
      2526      2527      2528      2526      2527      2529      2528      2527      2529
      2527      2529      2530      2527      2529      2531      2527      2529      2541
      2530      2529      2531      2530      2529      2541      2531      2529      2541
      2524      2532      2533      2524      2532      2534      2524      2532      2535
      2533      2532      2534      2533      2532      2535      2534      2532      2535
      2532      2535      2536      2535      2536      2537      2535      2536      2538
      2537      2536      2538      2536      2538      2539      2536      2538      2540
      2536      2538      2588      2539      2538      2540      2539      2538      2588
      2540      2538      2588      2529      2541      2542      2529      2541      2543
      2529      2541      2544      2542      2541      2543      2542      2541      2544
      2543      2541      2544      2541      2544      2545      2541      2544      2546
      2541      2544      2547      2545      2544      2546      2545      2544      2547
      2546      2544      2547      2544      2547      2548      2544      2547      2549
      2544      2547      2550      2548      2547      2549      2548      2547      2550
      2549      2547      2550      2547      2550      2551      2547      2550      2552
      2547      2550      2553      2551      2550      2552      2551      2550      2553
      2552      2550      2553      2550      2553      2554      2550      2553      2555
      2550      2553      2556      2554      2553      2555      2554      2553      2556
      2555      2553      2556      2553      2556      2557      2553      2556      2558
      2553      2556      2559      2557      2556      2558      2557      2556      2559
      2558      2556      2559      2556      2559      2560      2556      2559      2561
      2560      2559      2561      2559      2561      2562      2559      2561      2563
      2562      2561      2563      2561      2563      2564      2561      2563      2565
      2561      2563      2566      2564      2563      2565      2564      2563      2566
      2565      2563      2566      2563      2566      2567      2563      2566      2568
      2563      2566      2569      2567      2566      2568      2567      2566      2569
      2568      2566      2569      2566      2569      2570      2566      2569      2571
      2566      2569      2572      2570      2569      2571      2570      2569      2572
      2571      2569      2572      2569      2572      2573      2569      2572      2574
      2569      2572      2575      2573      2572      2574      2573      2572      2575
      2574      2572      2575      2572      2575      2576      2572      2575      2577
      2572      2575      2578      2576      2575      2577      2576      2575      2578
      2577      2575      2578      2575      2578      2579      2575      2578      2580
      2575      2578      2581      2579      2578      2580      2579      2578      2581
      2580      2578      2581      2578      2581      2582      2578      2581      2583
      2578      2581      2584      2582      2581      2583      2582      2581      2584
      2583      2581      2584      2581      2584      2585      2581      2584      2586
      2581      2584      2587      2585      2584      2586      2585      2584      2587
      2586      2584      2587      2538      2588      2589      2538      2588      2590
      2538      2588      2591      2589      2588      2590      2589      2588      2591
      2590      2588      2591      2588      2591      2592      2588      2591      2593
      2588      2591      2594      2592      2591      2593      2592      2591      2594
      2593      2591      2594      2591      2594      2595      2591      2594      2596
      2591      2594      2597      2595      2594      2596      2595      2594      2597
      2596      2594      2597      2594      2597      2598      2594      2597      2599
      2594      2597      2600      2598      2597      2599      2598      2597      2600
      2599      2597      2600      2597      2600      2601      2597      2600      2602
      2597      2600      2603      2601      2600      2602      2601      2600      2603
      2602      2600      2603      2600      2603      2604      2600      2603      2605
      2600      2603      2606      2604      2603      2605      2604      2603      2606
      2605      2603      2606      2603      2606      2607      2603      2606      2608
      2603      2606      2609      2607      2606      2608      2607      2606      2609
      2608      2606      2609      2606      2609      2610      2606      2609      2611
      2606      2609      2612      2610      2609      2611      2610      2609      2612
      2611      2609      2612      2609      2612      2613      2609      2612      2614
      2609      2612      2615      2613      2612      2614      2613      2612      2615
      2614      2612      2615      2612      2615      2616      2612      2615      2617
      2612      2615      2618      2616      2615      2617      2616      2615      2618
      2617      2615      2618      2615      2618      2619      2615      2618      2620
      2615      2618      2621      2619      2618      2620      2619      2618      2621
      2620      2618      2621      2618      2621      2622      2618      2621      2623
      2618      2621      2624      2622      2621      2623      2622      2621      2624
      2623      2621      2624      2621      2624      2625      2621      2624      2626
      2621      2624      2627      2625      2624      2626      2625      2624      2627
      2626      2624      2627      2624      2627      2628      2624      2627      2629
      2624      2627      2630      2628      2627      2629      2628      2627      2630
      2629      2627      2630      2632      2631      2635      2632      2631      2639
      2632      2631      2643      2635      2631      2639      2635      2631      2643
      2639      2631      2643      2631      2632      2633      2631      2632      2634
      2631      2632      2647      2633      2632      2634      2633      2632      2647
      2634      2632      2647      2631      2635      2636      2631      2635      2637
      2631      2635      2638      2636      2635      2637      2636      2635      2638
      2637      2635      2638      2631      2639      2640      2631      2639      2641
      2631      2639      2642      2640      2639      2641      2640      2639      2642
      2641      2639      2642      2631      2643      2644      2631      2643      2645
      2631      2643      2646      2644      2643      2645      2644      2643      2646
      2645      2643      2646      2632      2647      2648      2632      2647      2649
      2632      2647      2653      2648      2647      2649      2648      2647      2653
      2649      2647      2653      2651      2650      2652      2651      2650      2653
      2651      2650      2654      2652      2650      2653      2652      2650      2654
      2653      2650      2654      2647      2653      2650      2650      2654      2655
      2654      2655      2656      2654      2655      2657      2654      2655      2658
      2656      2655      2657      2656      2655      2658      2657      2655      2658
      2655      2658      2659      2655      2658      2660      2655      2658      2666
      2659      2658      2660      2659      2658      2666      2660      2658      2666
      2658      2660      2661      2660      2661      2662      2660      2661      2663
      2662      2661      2663      2661      2663      2664      2661      2663      2665
      2661      2663      2675      2664      2663      2665      2664      2663      2675
      2665      2663      2675      2658      2666      2667      2658      2666      2668
      2658      2666      2669      2667      2666      2668      2667      2666      2669
      2668      2666      2669      2666      2669      2670      2669      2670      2671
      2669      2670      2672      2671      2670      2672      2670      2672      2673
      2670      2672      2674      2670      2672      2722      2673      2672      2674
      2673      2672      2722      2674      2672      2722      2663      2675      2676
      2663      2675      2677      2663      2675      2678      2676      2675      2677
      2676      2675      2678      2677      2675      2678      2675      2678      2679
      2675      2678      2680      2675      2678      2681      2679      2678      2680
      2679      2678      2681      2680      2678      2681      2678      2681      2682
      2678      2681      2683      2678      2681      2684      2682      2681      2683
      2682      2681      2684      2683      2681      2684      2681      2684      2685
      2681      2684      2686      2681      2684      2687      2685      2684      2686
      2685      2684      2687      2686      2684      2687      2684      2687      2688
      2684      2687      2689      2684      2687      2690      2688      2687      2689
      2688      2687      2690      2689      2687      2690      2687      2690      2691
      2687      2690      2692      2687      2690      2693      2691      2690      2692
      2691      2690      2693      2692      2690      2693      2690      2693      2694
      2690      2693      2695      2694      2693      2695      2693      2695      2696
      2693      2695      2697      2696      2695      2697      2695      2697      2698
      2695      2697      2699      2695      2697      2700      2698      2697      2699
      2698      2697      2700      2699      2697      2700      2697      2700      2701
      2697      2700      2702      2697      2700      2703      2701      2700      2702
      2701      2700      2703      2702      2700      2703      2700      2703      2704
      2700      2703      2705      2700      2703      2706      2704      2703      2705
      2704      2703      2706      2705      2703      2706      2703      2706      2707
      2703      2706      2708      2703      2706      2709      2707      2706      2708
      2707      2706      2709      2708      2706      2709      2706      2709      2710
      2706      2709      2711      2706      2709      2712      2710      2709      2711
      2710      2709      2712      2711      2709      2712      2709      2712      2713
      2709      2712      2714      2709      2712      2715      2713      2712      2714
      2713      2712      2715      2714      2712      2715      2712      2715      2716
      2712      2715      2717      2712      2715      2718      2716      2715      2717
      2716      2715      2718      2717      2715      2718      2715      2718      2719
      2715      2718      2720      2715      2718      2721      2719      2718      2720
      2719      2718      2721      2720      2718      2721      2672      2722      2723
      2672      2722      2724      2672      2722      2725      2723      2722      2724
      2723      2722      2725      2724      2722      2725      2722      2725      2726
      2722      2725      2727      2722      2725      2728      2726      2725      2727
      2726      2725      2728      2727      2725      2728      2725      2728      2729
      2725      2728      2730      2725      2728      2731      2729      2728      2730
      2729      2728      2731      2730      2728      2731      2728      2731      2732
      2728      2731      2733      2728      2731      2734      2732      2731      2733
      2732      2731      2734      2733      2731      2734      2731      2734      2735
      2731      2734      2736      2731      2734      2737      2735      2734      2736
      2735      2734      2737      2736      2734      2737      2734      2737      2738
      2734      2737      2739      2734      2737      2740      2738      2737      2739
      2738      2737      2740      2739      2737      2740      2737      2740      2741
      2737      2740      2742      2737      2740      2743      2741      2740      2742
      2741      2740      2743      2742      2740      2743      2740      2743      2744
      2740      2743      2745      2740      2743      2746      2744      2743      2745
      2744      2743      2746      2745      2743      2746      2743      2746      2747
      2743      2746      2748      2743      2746      2749      2747      2746      2748
      2747      2746      2749      2748      2746      2749      2746      2749      2750
      2746      2749      2751      2746      2749      2752      2750      2749      2751
      2750      2749      2752      2751      2749      2752      2749      2752      2753
      2749      2752      2754      2749      2752      2755      2753      2752      2754
      2753      2752      2755      2754      2752      2755      2752      2755      2756
      2752      2755      2757      2752      2755      2758      2756      2755      2757
      2756      2755      2758      2757      2755      2758      2755      2758      2759
      2755      2758      2760      2755      2758      2761      2759      2758      2760
      2759      2758      2761      2760      2758      2761      2758      2761      2762
      2758      2761      2763      2758      2761      2764      2762      2761      2763
      2762      2761      2764      2763      2761      2764      2766      2765      2769
      2766      2765      2773      2766      2765      2777      2769      2765      2773
      2769      2765      2777      2773      2765      2777      2765      2766      2767
      2765      2766      2768      2765      2766      2781      2767      2766      2768
      2767      2766      2781      2768      2766      2781      2765      2769      2770
      2765      2769      2771      2765      2769      2772      2770      2769      2771
      2770      2769      2772      2771      2769      2772      2765      2773      2774
      2765      2773      2775      2765      2773      2776      2774      2773      2775
      2774      2773      2776      2775      2773      2776      2765      2777      2778
      2765      2777      2779      2765      2777      2780      2778      2777      2779
      2778      2777      2780      2779      2777      2780      2766      2781      2782
      2766      2781      2783      2766      2781      2787      2782      2781      2783
      2782      2781      2787      2783      2781      2787      2785      2784      2786
      2785      2784      2787      2785      2784      2788      2786      2784      2787
      2786      2784      2788      2787      2784      2788      2781      2787      2784
      2784      2788      2789      2788      2789      2790      2788      2789      2791
      2788      2789      2792      2790      2789      2791      2790      2789      2792
      2791      2789      2792      2789      2792      2793      2789      2792      2794
      2789      2792      2800      2793      2792      2794      2793      2792      2800
      2794      2792      2800      2792      2794      2795      2794      2795      2796
      2794      2795      2797      2796      2795      2797      2795      2797      2798
      2795      2797      2799      2795      2797      2809      2798      2797      2799
      2798      2797      2809      2799      2797      2809      2792      2800      2801
      2792      2800      2802      2792      2800      2803      2801      2800      2802
      2801      2800      2803      2802      2800      2803      2800      2803      2804
      2803      2804      2805      2803      2804      2806      2805      2804      2806
      2804      2806      2807      2804      2806      2808      2804      2806      2856
      2807      2806      2808      2807      2806      2856      2808      2806      2856
      2797      2809      2810      2797      2809      2811      2797      2809      2812
      2810      2809      2811      2810      2809      2812      2811      2809      2812
      2809      2812      2813      2809      2812      2814      2809      2812      2815
      2813      2812      2814      2813      2812      2815      2814      2812      2815
      2812      2815      2816      2812      2815      2817      2812      2815      2818
      2816      2815      2817      2816      2815      2818      2817      2815      2818
      2815      2818      2819      2815      2818      2820      2815      2818      2821
      2819      2818      2820      2819      2818      2821      2820      2818      2821
      2818      2821      2822      2818      2821      2823      2818      2821      2824
      2822      2821      2823      2822      2821      2824      2823      2821      2824
      2821      2824      2825      2821      2824      2826      2821      2824      2827
      2825      2824      2826      2825      2824      2827      2826      2824      2827
      2824      2827      2828      2824      2827      2829      2828      2827      2829
      2827      2829      2830      2827      2829      2831      2830      2829      2831
      2829      2831      2832      2829      2831      2833      2829      2831      2834
      2832      2831      2833      2832      2831      2834      2833      2831      2834
      2831      2834      2835      2831      2834      2836      2831      2834      2837
      2835      2834      2836      2835      2834      2837      2836      2834      2837
      2834      2837      2838      2834      2837      2839      2834      2837      2840
      2838      2837      2839      2838      2837      2840      2839      2837      2840
      2837      2840      2841      2837      2840      2842      2837      2840      2843
      2841      2840      2842      2841      2840      2843      2842      2840      2843
      2840      2843      2844      2840      2843      2845      2840      2843      2846
      2844      2843      2845      2844      2843      2846      2845      2843      2846
      2843      2846      2847      2843      2846      2848      2843      2846      2849
      2847      2846      2848      2847      2846      2849      2848      2846      2849
      2846      2849      2850      2846      2849      2851      2846      2849      2852
      2850      2849      2851      2850      2849      2852      2851      2849      2852
      2849      2852      2853      2849      2852      2854      2849      2852      2855
      2853      2852      2854      2853      2852      2855      2854      2852      2855
      2806      2856      2857      2806      2856      2858      2806      2856      2859
      2857      2856      2858      2857      2856      2859      2858      2856      2859
      2856      2859      2860      2856      2859      2861      2856      2859      2862
      2860      2859      2861      2860      2859      2862      2861      2859      2862
      2859      2862      2863      2859      2862      2864      2859      2862      2865
      2863      2862      2864      2863      2862      2865      2864      2862      2865
      2862      2865      2866      2862      2865      2867      2862      2865      2868
      2866      2865      2867      2866      2865      2868      2867      2865      2868
      2865      2868      2869      2865      2868      2870      2865      2868      2871
      2869      2868      2870      2869      2868      2871      2870      2868      2871
      2868      2871      2872      2868      2871      2873      2868      2871      2874
      2872      2871      2873      2872      2871      2874      2873      2871      2874
      2871      2874      2875      2871      2874      2876      2871      2874      2877
      2875      2874      2876      2875      2874      2877      2876      2874      2877
      2874      2877      2878      2874      2877      2879      2874      2877      2880
      2878      2877      2879      2878      2877      2880      2879      2877      2880
      2877      2880      2881      2877      2880      2882      2877      2880      2883
      2881      2880      2882      2881      2880      2883      2882      2880      2883
      2880      2883      2884      2880      2883      2885      2880      2883      2886
      2884      2883      2885      2884      2883      2886      2885      2883      2886
      2883      2886      2887      2883      2886      2888      2883      2886      2889
      2887      2886      2888      2887      2886      2889      2888      2886      2889
      2886      2889      2890      2886      2889      2891      2886      2889      2892
      2890      2889      2891      2890      2889      2892      2891      2889      2892
      2889      2892      2893      2889      2892      2894      2889      2892      2895
      2893      2892      2894      2893      2892      2895      2894      2892      2895
      2892      2895      2896      2892      2895      2897      2892      2895      2898
      2896      2895      2897      2896      2895      2898      2897      2895      2898
      2900      2899      2903      2900      2899      2907      2900      2899      2911
      2903      2899      2907      2903      2899      2911      2907      2899      2911
      2899      2900      2901      2899      2900      2902      2899      2900      2915
      2901      2900      2902      2901      2900      2915      2902      2900      2915
      2899      2903      2904      2899      2903      2905      2899      2903      2906
      2904      2903      2905      2904      2903      2906      2905      2903      2906
      2899      2907      2908      2899      2907      2909      2899      2907      2910
      2908      2907      2909      2908      2907      2910      2909      2907      2910
      2899      2911      2912      2899      2911      2913      2899      2911      2914
      2912      2911      2913      2912      2911      2914      2913      2911      2914
      2900      2915      2916      2900      2915      2917      2900      2915      2921
      2916      2915      2917      2916      2915      2921      2917      2915      2921
      2919      2918      2920      2919      2918      2921      2919      2918      2922
      2920      2918      2921      2920      2918      2922      2921      2918      2922
      2915      2921      2918      2918      2922      2923      2922      2923      2924
      2922      2923      2925      2922      2923      2926      2924      2923      2925
      2924      2923      2926      2925      2923      2926      2923      2926      2927
      2923      2926      2928      2923      2926      2934      2927      2926      2928
      2927      2926      2934      2928      2926      2934      2926      2928      2929
      2928      2929      2930      2928      2929      2931      2930      2929      2931
      2929      2931      2932      2929      2931      2933      2929      2931      2943
      2932      2931      2933      2932      2931      2943      2933      2931      2943
      2926      2934      2935      2926      2934      2936      2926      2934      2937
      2935      2934      2936      2935      2934      2937      2936      2934      2937
      2934      2937      2938      2937      2938      2939      2937      2938      2940
      2939      2938      2940      2938      2940      2941      2938      2940      2942
      2938      2940      2990      2941      2940      2942      2941      2940      2990
      2942      2940      2990      2931      2943      2944      2931      2943      2945
      2931      2943      2946      2944      2943      2945      2944      2943      2946
      2945      2943      2946      2943      2946      2947      2943      2946      2948
      2943      2946      2949      2947      2946      2948      2947      2946      2949
      2948      2946      2949      2946      2949      2950      2946      2949      2951
      2946      2949      2952      2950      2949      2951      2950      2949      2952
      2951      2949      2952      2949      2952      2953      2949      2952      2954
      2949      2952      2955      2953      2952      2954      2953      2952      2955
      2954      2952      2955      2952      2955      2956      2952      2955      2957
      2952      2955      2958      2956      2955      2957      2956      2955      2958
      2957      2955      2958      2955      2958      2959      2955      2958      2960
      2955      2958      2961      2959      2958      2960      2959      2958      2961
      2960      2958      2961      2958      2961      2962      2958      2961      2963
      2962      2961      2963      2961      2963      2964      2961      2963      2965
      2964      2963      2965      2963      2965      2966      2963      2965      2967
      2963      2965      2968      2966      2965      2967      2966      2965      2968
      2967      2965      2968      2965      2968      2969      2965      2968      2970
      2965      2968      2971      2969      2968      2970      2969      2968      2971
      2970      2968      2971      2968      2971      2972      2968      2971      2973
      2968      2971      2974      2972      2971      2973      2972      2971      2974
      2973      2971      2974      2971      2974      2975      2971      2974      2976
      2971      2974      2977      2975      2974      2976      2975      2974      2977
      2976      2974      2977      2974      2977      2978      2974      2977      2979
      2974      2977      2980      2978      2977      2979      2978      2977      2980
      2979      2977      2980      2977      2980      2981      2977      2980      2982
      2977      2980      2983      2981      2980      2982      2981      2980      2983
      2982      2980      2983      2980      2983      2984      2980      2983      2985
      2980      2983      2986      2984      2983      2985      2984      2983      2986
      2985      2983      2986      2983      2986      2987      2983      2986      2988
      2983      2986      2989      2987      2986      2988      2987      2986      2989
      2988      2986      2989      2940      2990      2991      2940      2990      2992
      2940      2990      2993      2991      2990      2992      2991      2990      2993
      2992      2990      2993      2990      2993      2994      2990      2993      2995
      2990      2993      2996      2994      2993      2995      2994      2993      2996
      2995      2993      2996      2993      2996      2997      2993      2996      2998
      2993      2996      2999      2997      2996      2998      2997      2996      2999
      2998      2996      2999      2996      2999      3000      2996      2999      3001
      2996      2999      3002      3000      2999      3001      3000      2999      3002
      3001      2999      3002      2999      3002      3003      2999      3002      3004
      2999      3002      3005      3003      3002      3004      3003      3002      3005
      3004      3002      3005      3002      3005      3006      3002      3005      3007
      3002      3005      3008      3006      3005      3007      3006      3005      3008
      3007      3005      3008      3005      3008      3009      3005      3008      3010
      3005      3008      3011      3009      3008      3010      3009      3008      3011
      3010      3008      3011      3008      3011      3012      3008      3011      3013
      3008      3011      3014      3012      3011      3013      3012      3011      3014
      3013      3011      3014      3011      3014      3015      3011      3014      3016
      3011      3014      3017      3015      3014      3016      3015      3014      3017
      3016      3014      3017      3014      3017      3018      3014      3017      3019
      3014      3017      3020      3018      3017      3019      3018      3017      3020
      3019      3017      3020      3017      3020      3021      3017      3020      3022
      3017      3020      3023      3021      3020      3022      3021      3020      3023
      3022      3020      3023      3020      3023      3024      3020      3023      3025
      3020      3023      3026      3024      3023      3025      3024      3023      3026
      3025      3023      3026      3023      3026      3027      3023      3026      3028
      3023      3026      3029      3027      3026      3028      3027      3026      3029
      3028      3026      3029      3026      3029      3030      3026      3029      3031
      3026      3029      3032      3030      3029      3031      3030      3029      3032
      3031      3029      3032      3034      3033      3037      3034      3033      3041
      3034      3033      3045      3037      3033      3041      3037      3033      3045
      3041      3033      3045      3033      3034      3035      3033      3034      3036
      3033      3034      3049      3035      3034      3036      3035      3034      3049
      3036      3034      3049      3033      3037      3038      3033      3037      3039
      3033      3037      3040      3038      3037      3039      3038      3037      3040
      3039      3037      3040      3033      3041      3042      3033      3041      3043
      3033      3041      3044      3042      3041      3043      3042      3041      3044
      3043      3041      3044      3033      3045      3046      3033      3045      3047
      3033      3045      3048      3046      3045      3047      3046      3045      3048
      3047      3045      3048      3034      3049      3050      3034      3049      3051
      3034      3049      3055      3050      3049      3051      3050      3049      3055
      3051      3049      3055      3053      3052      3054      3053      3052      3055
      3053      3052      3056      3054      3052      3055      3054      3052      3056
      3055      3052      3056      3049      3055      3052      3052      3056      3057
      3056      3057      3058      3056      3057      3059      3056      3057      3060
      3058      3057      3059      3058      3057      3060      3059      3057      3060
      3057      3060      3061      3057      3060      3062      3057      3060      3068
      3061      3060      3062      3061      3060      3068      3062      3060      3068
      3060      3062      3063      3062      3063      3064      3062      3063      3065
      3064      3063      3065      3063      3065      3066      3063      3065      3067
      3063      3065      3077      3066      3065      3067      3066      3065      3077
      3067      3065      3077      3060      3068      3069      3060      3068      3070
      3060      3068      3071      3069      3068      3070      3069      3068      3071
      3070      3068      3071      3068      3071      3072      3071      3072      3073
      3071      3072      3074      3073      3072      3074      3072      3074      3075
      3072      3074      3076      3072      3074      3124      3075      3074      3076
      3075      3074      3124      3076      3074      3124      3065      3077      3078
      3065      3077      3079      3065      3077      3080      3078      3077      3079
      3078      3077      3080      3079      3077      3080      3077      3080      3081
      3077      3080      3082      3077      3080      3083      3081      3080      3082
      3081      3080      3083      3082      3080      3083      3080      3083      3084
      3080      3083      3085      3080      3083      3086      3084      3083      3085
      3084      3083      3086      3085      3083      3086      3083      3086      3087
      3083      3086      3088      3083      3086      3089      3087      3086      3088
      3087      3086      3089      3088      3086      3089      3086      3089      3090
      3086      3089      3091      3086      3089      3092      3090      3089      3091
      3090      3089      3092      3091      3089      3092      3089      3092      3093
      3089      3092      3094      3089      3092      3095      3093      3092      3094
      3093      3092      3095      3094      3092      3095      3092      3095      3096
      3092      3095      3097      3096      3095      3097      3095      3097      3098
      3095      3097      3099      3098      3097      3099      3097      3099      3100
      3097      3099      3101      3097      3099      3102      3100      3099      3101
      3100      3099      3102      3101      3099      3102      3099      3102      3103
      3099      3102      3104      3099      3102      3105      3103      3102      3104
      3103      3102      3105      3104      3102      3105      3102      3105      3106
      3102      3105      3107      3102      3105      3108      3106      3105      3107
      3106      3105      3108      3107      3105      3108      3105      3108      3109
      3105      3108      3110      3105      3108      3111      3109      3108      3110
      3109      3108      3111      3110      3108      3111      3108      3111      3112
      3108      3111      3113      3108      3111      3114      3112      3111      3113
      3112      3111      3114      3113      3111      3114      3111      3114      3115
      3111      3114      3116      3111      3114      3117      3115      3114      3116
      3115      3114      3117      3116      3114      3117      3114      3117      3118
      3114      3117      3119      3114      3117      3120      3118      3117      3119
      3118      3117      3120      3119      3117      3120      3117      3120      3121
      3117      3120      3122      3117      3120      3123      3121      3120      3122
      3121      3120      3123      3122      3120      3123      3074      3124      3125
      3074      3124      3126      3074      3124      3127      3125      3124      3126
      3125      3124      3127      3126      3124      3127      3124      3127      3128
      3124      3127      3129      3124      3127      3130      3128      3127      3129
      3128      3127      3130      3129      3127      3130      3127      3130      3131
      3127      3130      3132      3127      3130      3133      3131      3130      3132
      3131      3130      3133      3132      3130      3133      3130      3133      3134
      3130      3133      3135      3130      3133      3136      3134      3133      3135
      3134      3133      3136      3135      3133      3136      3133      3136      3137
      3133      3136      3138      3133      3136      3139      3137      3136      3138
      3137      3136      3139      3138      3136      3139      3136      3139      3140
      3136      3139      3141      3136      3139      3142      3140      3139      3141
      3140      3139      3142      3141      3139      3142      3139      3142      3143
      3139      3142      3144      3139      3142      3145      3143      3142      3144
      3143      3142      3145      3144      3142      3145      3142      3145      3146
      3142      3145      3147      3142      3145      3148      3146      3145      3147
      3146      3145      3148      3147      3145      3148      3145      3148      3149
      3145      3148      3150      3145      3148      3151      3149      3148      3150
      3149      3148      3151      3150      3148      3151      3148      3151      3152
      3148      3151      3153      3148      3151      3154      3152      3151      3153
      3152      3151      3154      3153      3151      3154      3151      3154      3155
      3151      3154      3156      3151      3154      3157      3155      3154      3156
      3155      3154      3157      3156      3154      3157      3154      3157      3158
      3154      3157      3159      3154      3157      3160      3158      3157      3159
      3158      3157      3160      3159      3157      3160      3157      3160      3161
      3157      3160      3162      3157      3160      3163      3161      3160      3162
      3161      3160      3163      3162      3160      3163      3160      3163      3164
      3160      3163      3165      3160      3163      3166      3164      3163      3165
      3164      3163      3166      3165      3163      3166      3168      3167      3171
      3168      3167      3175      3168      3167      3179      3171      3167      3175
      3171      3167      3179      3175      3167      3179      3167      3168      3169
      3167      3168      3170      3167      3168      3183      3169      3168      3170
      3169      3168      3183      3170      3168      3183      3167      3171      3172
      3167      3171      3173      3167      3171      3174      3172      3171      3173
      3172      3171      3174      3173      3171      3174      3167      3175      3176
      3167      3175      3177      3167      3175      3178      3176      3175      3177
      3176      3175      3178      3177      3175      3178      3167      3179      3180
      3167      3179      3181      3167      3179      3182      3180      3179      3181
      3180      3179      3182      3181      3179      3182      3168      3183      3184
      3168      3183      3185      3168      3183      3189      3184      3183      3185
      3184      3183      3189      3185      3183      3189      3187      3186      3188
      3187      3186      3189      3187      3186      3190      3188      3186      3189
      3188      3186      3190      3189      3186      3190      3183      3189      3186
      3186      3190      3191      3190      3191      3192      3190      3191      3193
      3190      3191      3194      3192      3191      3193      3192      3191      3194
      3193      3191      3194      3191      3194      3195      3191      3194      3196
      3191      3194      3202      3195      3194      3196      3195      3194      3202
      3196      3194      3202      3194      3196      3197      3196      3197      3198
      3196      3197      3199      3198      3197      3199      3197      3199      3200
      3197      3199      3201      3197      3199      3211      3200      3199      3201
      3200      3199      3211      3201      3199      3211      3194      3202      3203
      3194      3202      3204      3194      3202      3205      3203      3202      3204
      3203      3202      3205      3204      3202      3205      3202      3205      3206
      3205      3206      3207      3205      3206      3208      3207      3206      3208
      3206      3208      3209      3206      3208      3210      3206      3208      3258
      3209      3208      3210      3209      3208      3258      3210      3208      3258
      3199      3211      3212      3199      3211      3213      3199      3211      3214
      3212      3211      3213      3212      3211      3214      3213      3211      3214
      3211      3214      3215      3211      3214      3216      3211      3214      3217
      3215      3214      3216      3215      3214      3217      3216      3214      3217
      3214      3217      3218      3214      3217      3219      3214      3217      3220
      3218      3217      3219      3218      3217      3220      3219      3217      3220
      3217      3220      3221      3217      3220      3222      3217      3220      3223
      3221      3220      3222      3221      3220      3223      3222      3220      3223
      3220      3223      3224      3220      3223      3225      3220      3223      3226
      3224      3223      3225      3224      3223      3226      3225      3223      3226
      3223      3226      3227      3223      3226      3228      3223      3226      3229
      3227      3226      3228      3227      3226      3229      3228      3226      3229
      3226      3229      3230      3226      3229      3231      3230      3229      3231
      3229      3231      3232      3229      3231      3233      3232      3231      3233
      3231      3233      3234      3231      3233      3235      3231      3233      3236
      3234      3233      3235      3234      3233      3236      3235      3233      3236
      3233      3236      3237      3233      3236      3238      3233      3236      3239
      3237      3236      3238      3237      3236      3239      3238      3236      3239
      3236      3239      3240      3236      3239      3241      3236      3239      3242
      3240      3239      3241      3240      3239      3242      3241      3239      3242
      3239      3242      3243      3239      3242      3244      3239      3242      3245
      3243      3242      3244      3243      3242      3245      3244      3242      3245
      3242      3245      3246      3242      3245      3247      3242      3245      3248
      3246      3245      3247      3246      3245      3248      3247      3245      3248
      3245      3248      3249      3245      3248      3250      3245      3248      3251
      3249      3248      3250      3249      3248      3251      3250      3248      3251
      3248      3251      3252      3248      3251      3253      3248      3251      3254
      3252      3251      3253      3252      3251      3254      3253      3251      3254
      3251      3254      3255      3251      3254      3256      3251      3254      3257
      3255      3254      3256      3255      3254      3257      3256      3254      3257
      3208      3258      3259      3208      3258      3260      3208      3258      3261
      3259      3258      3260      3259      3258      3261      3260      3258      3261
      3258      3261      3262      3258      3261      3263      3258      3261      3264
      3262      3261      3263      3262      3261      3264      3263      3261      3264
      3261      3264      3265      3261      3264      3266      3261      3264      3267
      3265      3264      3266      3265      3264      3267      3266      3264      3267
      3264      3267      3268      3264      3267      3269      3264      3267      3270
      3268      3267      3269      3268      3267      3270      3269      3267      3270
      3267      3270      3271      3267      3270      3272      3267      3270      3273
      3271      3270      3272      3271      3270      3273      3272      3270      3273
      3270      3273      3274      3270      3273      3275      3270      3273      3276
      3274      3273      3275      3274      3273      3276      3275      3273      3276
      3273      3276      3277      3273      3276      3278      3273      3276      3279
      3277      3276      3278      3277      3276      3279      3278      3276      3279
      3276      3279      3280      3276      3279      3281      3276      3279      3282
      3280      3279      3281      3280      3279      3282      3281      3279      3282
      3279      3282      3283      3279      3282      3284      3279      3282      3285
      3283      3282      3284      3283      3282      3285      3284      3282      3285
      3282      3285      3286      3282      3285      3287      3282      3285      3288
      3286      3285      3287      3286      3285      3288      3287      3285      3288
      3285      3288      3289      3285      3288      3290      3285      3288      3291
      3289      3288      3290      3289      3288      3291      3290      3288      3291
      3288      3291      3292      3288      3291      3293      3288      3291      3294
      3292      3291      3293      3292      3291      3294      3293      3291      3294
      3291      3294      3295      3291      3294      3296      3291      3294      3297
      3295      3294      3296      3295      3294      3297      3296      3294      3297
      3294      3297      3298      3294      3297      3299      3294      3297      3300
      3298      3297      3299      3298      3297      3300      3299      3297      3300
      3302      3301      3303      3302      3301      3304      3302      3301      3305
      3303      3301      3304      3303      3301      3305      3304      3301      3305
      3301      3305      3306      3301      3305      3307      3301      3305      3310
      3306      3305      3307      3306      3305      3310      3307      3305      3310
      3305      3307      3308      3305      3307      3309      3308      3307      3309
      3305      3310      3311      3305      3310      3312      3305      3310      3316
      3311      3310      3312      3311      3310      3316      3312      3310      3316
      3314      3313      3315      3314      3313      3316      3314      3313      3317
      3315      3313      3316      3315      3313      3317      3316      3313      3317
      3310      3316      3313      3313      3317      3318      3317      3318      3319
      3317      3318      3320      3317      3318      3321      3319      3318      3320
      3319      3318      3321      3320      3318      3321      3318      3321      3322
      3318      3321      3323      3318      3321      3329      3322      3321      3323
      3322      3321      3329      3323      3321      3329      3321      3323      3324
      3323      3324      3325      3323      3324      3326      3325      3324      3326
      3324      3326      3327      3324      3326      3328      3324      3326      3338
      3327      3326      3328      3327      3326      3338      3328      3326      3338
      3321      3329      3330      3321      3329      3331      3321      3329      3332
      3330      3329      3331      3330      3329      3332      3331      3329      3332
      3329      3332      3333      3332      3333      3334      3332      3333      3335
      3334      3333      3335      3333      3335      3336      3333      3335      3337
      3333      3335      3385      3336      3335      3337      3336      3335      3385
      3337      3335      3385      3326      3338      3339      3326      3338      3340
      3326      3338      3341      3339      3338      3340      3339      3338      3341
      3340      3338      3341      3338      3341      3342      3338      3341      3343
      3338      3341      3344      3342      3341      3343      3342      3341      3344
      3343      3341      3344      3341      3344      3345      3341      3344      3346
      3341      3344      3347      3345      3344      3346      3345      3344      3347
      3346      3344      3347      3344      3347      3348      3344      3347      3349
      3344      3347      3350      3348      3347      3349      3348      3347      3350
      3349      3347      3350      3347      3350      3351      3347      3350      3352
      3347      3350      3353      3351      3350      3352      3351      3350      3353
      3352      3350      3353      3350      3353      3354      3350      3353      3355
      3350      3353      3356      3354      3353      3355      3354      3353      3356
      3355      3353      3356      3353      3356      3357      3353      3356      3358
      3357      3356      3358      3356      3358      3359      3356      3358      3360
      3359      3358      3360      3358      3360      3361      3358      3360      3362
      3358      3360      3363      3361      3360      3362      3361      3360      3363
      3362      3360      3363      3360      3363      3364      3360      3363      3365
      3360      3363      3366      3364      3363      3365      3364      3363      3366
      3365      3363      3366      3363      3366      3367      3363      3366      3368
      3363      3366      3369      3367      3366      3368      3367      3366      3369
      3368      3366      3369      3366      3369      3370      3366      3369      3371
      3366      3369      3372      3370      3369      3371      3370      3369      3372
      3371      3369      3372      3369      3372      3373      3369      3372      3374
      3369      3372      3375      3373      3372      3374      3373      3372      3375
      3374      3372      3375      3372      3375      3376      3372      3375      3377
      3372      3375      3378      3376      3375      3377      3376      3375      3378
      3377      3375      3378      3375      3378      3379      3375      3378      3380
      3375      3378      3381      3379      3378      3380      3379      3378      3381
      3380      3378      3381      3378      3381      3382      3378      3381      3383
      3378      3381      3384      3382      3381      3383      3382      3381      3384
      3383      3381      3384      3335      3385      3386      3335      3385      3387
      3335      3385      3388      3386      3385      3387      3386      3385      3388
      3387      3385      3388      3385      3388      3389      3385      3388      3390
      3385      3388      3391      3389      3388      3390      3389      3388      3391
      3390      3388      3391      3388      3391      3392      3388      3391      3393
      3388      3391      3394      3392      3391      3393      3392      3391      3394
      3393      3391      3394      3391      3394      3395      3391      3394      3396
      3391      3394      3397      3395      3394      3396      3395      3394      3397
      3396      3394      3397      3394      3397      3398      3394      3397      3399
      3394      3397      3400      3398      3397      3399      3398      3397      3400
      3399      3397      3400      3397      3400      3401      3397      3400      3402
      3397      3400      3403      3401      3400      3402      3401      3400      3403
      3402      3400      3403      3400      3403      3404      3400      3403      3405
      3400      3403      3406      3404      3403      3405      3404      3403      3406
      3405      3403      3406      3403      3406      3407      3403      3406      3408
      3403      3406      3409      3407      3406      3408      3407      3406      3409
      3408      3406      3409      3406      3409      3410      3406      3409      3411
      3406      3409      3412      3410      3409      3411      3410      3409      3412
      3411      3409      3412      3409      3412      3413      3409      3412      3414
      3409      3412      3415      3413      3412      3414      3413      3412      3415
      3414      3412      3415      3412      3415      3416      3412      3415      3417
      3412      3415      3418      3416      3415      3417      3416      3415      3418
      3417      3415      3418      3415      3418      3419      3415      3418      3420
      3415      3418      3421      3419      3418      3420      3419      3418      3421
      3420      3418      3421      3418      3421      3422      3418      3421      3423
      3418      3421      3424      3422      3421      3423      3422      3421      3424
      3423      3421      3424      3421      3424      3425      3421      3424      3426
      3421      3424      3427      3425      3424      3426      3425      3424      3427
      3426      3424      3427      3429      3428      3432      3429      3428      3436
      3429      3428      3440      3432      3428      3436      3432      3428      3440
      3436      3428      3440      3428      3429      3430      3428      3429      3431
      3428      3429      3444      3430      3429      3431      3430      3429      3444
      3431      3429      3444      3428      3432      3433      3428      3432      3434
      3428      3432      3435      3433      3432      3434      3433      3432      3435
      3434      3432      3435      3428      3436      3437      3428      3436      3438
      3428      3436      3439      3437      3436      3438      3437      3436      3439
      3438      3436      3439      3428      3440      3441      3428      3440      3442
      3428      3440      3443      3441      3440      3442      3441      3440      3443
      3442      3440      3443      3429      3444      3445      3429      3444      3446
      3429      3444      3450      3445      3444      3446      3445      3444      3450
      3446      3444      3450      3448      3447      3449      3448      3447      3450
      3448      3447      3451      3449      3447      3450      3449      3447      3451
      3450      3447      3451      3444      3450      3447      3447      3451      3452
      3451      3452      3453      3451      3452      3454      3451      3452      3455
      3453      3452      3454      3453      3452      3455      3454      3452      3455
      3452      3455      3456      3452      3455      3457      3452      3455      3463
      3456      3455      3457      3456      3455      3463      3457      3455      3463
      3455      3457      3458      3457      3458      3459      3457      3458      3460
      3459      3458      3460      3458      3460      3461      3458      3460      3462
      3458      3460      3472      3461      3460      3462      3461      3460      3472
      3462      3460      3472      3455      3463      3464      3455      3463      3465
      3455      3463      3466      3464      3463      3465      3464      3463      3466
      3465      3463      3466      3463      3466      3467      3466      3467      3468
      3466      3467      3469      3468      3467      3469      3467      3469      3470
      3467      3469      3471      3467      3469      3519      3470      3469      3471
      3470      3469      3519      3471      3469      3519      3460      3472      3473
      3460      3472      3474      3460      3472      3475      3473      3472      3474
      3473      3472      3475      3474      3472      3475      3472      3475      3476
      3472      3475      3477      3472      3475      3478      3476      3475      3477
      3476      3475      3478      3477      3475      3478      3475      3478      3479
      3475      3478      3480      3475      3478      3481      3479      3478      3480
      3479      3478      3481      3480      3478      3481      3478      3481      3482
      3478      3481      3483      3478      3481      3484      3482      3481      3483
      3482      3481      3484      3483      3481      3484      3481      3484      3485
      3481      3484      3486      3481      3484      3487      3485      3484      3486
      3485      3484      3487      3486      3484      3487      3484      3487      3488
      3484      3487      3489      3484      3487      3490      3488      3487      3489
      3488      3487      3490      3489      3487      3490      3487      3490      3491
      3487      3490      3492      3491      3490      3492      3490      3492      3493
      3490      3492      3494      3493      3492      3494      3492      3494      3495
      3492      3494      3496      3492      3494      3497      3495      3494      3496
      3495      3494      3497      3496      3494      3497      3494      3497      3498
      3494      3497      3499      3494      3497      3500      3498      3497      3499
      3498      3497      3500      3499      3497      3500      3497      3500      3501
      3497      3500      3502      3497      3500      3503      3501      3500      3502
      3501      3500      3503      3502      3500      3503      3500      3503      3504
      3500      3503      3505      3500      3503      3506      3504      3503      3505
      3504      3503      3506      3505      3503      3506      3503      3506      3507
      3503      3506      3508      3503      3506      3509      3507      3506      3508
      3507      3506      3509      3508      3506      3509      3506      3509      3510
      3506      3509      3511      3506      3509      3512      3510      3509      3511
      3510      3509      3512      3511      3509      3512      3509      3512      3513
      3509      3512      3514      3509      3512      3515      3513      3512      3514
      3513      3512      3515      3514      3512      3515      3512      3515      3516
      3512      3515      3517      3512      3515      3518      3516      3515      3517
      3516      3515      3518      3517      3515      3518      3469      3519      3520
      3469      3519      3521      3469      3519      3522      3520      3519      3521
      3520      3519      3522      3521      3519      3522      3519      3522      3523
      3519      3522      3524      3519      3522      3525      3523      3522      3524
      3523      3522      3525      3524      3522      3525      3522      3525      3526
      3522      3525      3527      3522      3525      3528      3526      3525      3527
      3526      3525      3528      3527      3525      3528      3525      3528      3529
      3525      3528      3530      3525      3528      3531      3529      3528      3530
      3529      3528      3531      3530      3528      3531      3528      3531      3532
      3528      3531      3533      3528      3531      3534      3532      3531      3533
      3532      3531      3534      3533      3531      3534      3531      3534      3535
      3531      3534      3536      3531      3534      3537      3535      3534      3536
      3535      3534      3537      3536      3534      3537      3534      3537      3538
      3534      3537      3539      3534      3537      3540      3538      3537      3539
      3538      3537      3540      3539      3537      3540      3537      3540      3541
      3537      3540      3542      3537      3540      3543      3541      3540      3542
      3541      3540      3543      3542      3540      3543      3540      3543      3544
      3540      3543      3545      3540      3543      3546      3544      3543      3545
      3544      3543      3546      3545      3543      3546      3543      3546      3547
      3543      3546      3548      3543      3546      3549      3547      3546      3548
      3547      3546      3549      3548      3546      3549      3546      3549      3550
      3546      3549      3551      3546      3549      3552      3550      3549      3551
      3550      3549      3552      3551      3549      3552      3549      3552      3553
      3549      3552      3554      3549      3552      3555      3553      3552      3554
      3553      3552      3555      3554      3552      3555      3552      3555      3556
      3552      3555      3557      3552      3555      3558      3556      3555      3557
      3556      3555      3558      3557      3555      3558      3555      3558      3559
      3555      3558      3560      3555      3558      3561      3559      3558      3560
      3559      3558      3561      3560      3558      3561      3563      3562      3566
      3563      3562      3570      3563      3562      3574      3566      3562      3570
      3566      3562      3574      3570      3562      3574      3562      3563      3564
      3562      3563      3565      3562      3563      3578      3564      3563      3565
      3564      3563      3578      3565      3563      3578      3562      3566      3567
      3562      3566      3568      3562      3566      3569      3567      3566      3568
      3567      3566      3569      3568      3566      3569      3562      3570      3571
      3562      3570      3572      3562      3570      3573      3571      3570      3572
      3571      3570      3573      3572      3570      3573      3562      3574      3575
      3562      3574      3576      3562      3574      3577      3575      3574      3576
      3575      3574      3577      3576      3574      3577      3563      3578      3579
      3563      3578      3580      3563      3578      3584      3579      3578      3580
      3579      3578      3584      3580      3578      3584      3582      3581      3583
      3582      3581      3584      3582      3581      3585      3583      3581      3584
      3583      3581      3585      3584      3581      3585      3578      3584      3581
      3581      3585      3586      3585      3586      3587      3585      3586      3588
      3585      3586      3589      3587      3586      3588      3587      3586      3589
      3588      3586      3589      3586      3589      3590      3586      3589      3591
      3586      3589      3597      3590      3589      3591      3590      3589      3597
      3591      3589      3597      3589      3591      3592      3591      3592      3593
      3591      3592      3594      3593      3592      3594      3592      3594      3595
      3592      3594      3596      3592      3594      3606      3595      3594      3596
      3595      3594      3606      3596      3594      3606      3589      3597      3598
      3589      3597      3599      3589      3597      3600      3598      3597      3599
      3598      3597      3600      3599      3597      3600      3597      3600      3601
      3600      3601      3602      3600      3601      3603      3602      3601      3603
      3601      3603      3604      3601      3603      3605      3601      3603      3653
      3604      3603      3605      3604      3603      3653      3605      3603      3653
      3594      3606      3607      3594      3606      3608      3594      3606      3609
      3607      3606      3608      3607      3606      3609      3608      3606      3609
      3606      3609      3610      3606      3609      3611      3606      3609      3612
      3610      3609      3611      3610      3609      3612      3611      3609      3612
      3609      3612      3613      3609      3612      3614      3609      3612      3615
      3613      3612      3614      3613      3612      3615      3614      3612      3615
      3612      3615      3616      3612      3615      3617      3612      3615      3618
      3616      3615      3617      3616      3615      3618      3617      3615      3618
      3615      3618      3619      3615      3618      3620      3615      3618      3621
      3619      3618      3620      3619      3618      3621      3620      3618      3621
      3618      3621      3622      3618      3621      3623      3618      3621      3624
      3622      3621      3623      3622      3621      3624      3623      3621      3624
      3621      3624      3625      3621      3624      3626      3625      3624      3626
      3624      3626      3627      3624      3626      3628      3627      3626      3628
      3626      3628      3629      3626      3628      3630      3626      3628      3631
      3629      3628      3630      3629      3628      3631      3630      3628      3631
      3628      3631      3632      3628      3631      3633      3628      3631      3634
      3632      3631      3633      3632      3631      3634      3633      3631      3634
      3631      3634      3635      3631      3634      3636      3631      3634      3637
      3635      3634      3636      3635      3634      3637      3636      3634      3637
      3634      3637      3638      3634      3637      3639      3634      3637      3640
      3638      3637      3639      3638      3637      3640      3639      3637      3640
      3637      3640      3641      3637      3640      3642      3637      3640      3643
      3641      3640      3642      3641      3640      3643      3642      3640      3643
      3640      3643      3644      3640      3643      3645      3640      3643      3646
      3644      3643      3645      3644      3643      3646      3645      3643      3646
      3643      3646      3647      3643      3646      3648      3643      3646      3649
      3647      3646      3648      3647      3646      3649      3648      3646      3649
      3646      3649      3650      3646      3649      3651      3646      3649      3652
      3650      3649      3651      3650      3649      3652      3651      3649      3652
      3603      3653      3654      3603      3653      3655      3603      3653      3656
      3654      3653      3655      3654      3653      3656      3655      3653      3656
      3653      3656      3657      3653      3656      3658      3653      3656      3659
      3657      3656      3658      3657      3656      3659      3658      3656      3659
      3656      3659      3660      3656      3659      3661      3656      3659      3662
      3660      3659      3661      3660      3659      3662      3661      3659      3662
      3659      3662      3663      3659      3662      3664      3659      3662      3665
      3663      3662      3664      3663      3662      3665      3664      3662      3665
      3662      3665      3666      3662      3665      3667      3662      3665      3668
      3666      3665      3667      3666      3665      3668      3667      3665      3668
      3665      3668      3669      3665      3668      3670      3665      3668      3671
      3669      3668      3670      3669      3668      3671      3670      3668      3671
      3668      3671      3672      3668      3671      3673      3668      3671      3674
      3672      3671      3673      3672      3671      3674      3673      3671      3674
      3671      3674      3675      3671      3674      3676      3671      3674      3677
      3675      3674      3676      3675      3674      3677      3676      3674      3677
      3674      3677      3678      3674      3677      3679      3674      3677      3680
      3678      3677      3679      3678      3677      3680      3679      3677      3680
      3677      3680      3681      3677      3680      3682      3677      3680      3683
      3681      3680      3682      3681      3680      3683      3682      3680      3683
      3680      3683      3684      3680      3683      3685      3680      3683      3686
      3684      3683      3685      3684      3683      3686      3685      3683      3686
      3683      3686      3687      3683      3686      3688      3683      3686      3689
      3687      3686      3688      3687      3686      3689      3688      3686      3689
      3686      3689      3690      3686      3689      3691      3686      3689      3692
      3690      3689      3691      3690      3689      3692      3691      3689      3692
      3689      3692      3693      3689      3692      3694      3689      3692      3695
      3693      3692      3694      3693      3692      3695      3694      3692      3695
      3697      3696      3700      3697      3696      3704      3697      3696      3708
      3700      3696      3704      3700      3696      3708      3704      3696      3708
      3696      3697      3698      3696      3697      3699      3696      3697      3712
      3698      3697      3699      3698      3697      3712      3699      3697      3712
      3696      3700      3701      3696      3700      3702      3696      3700      3703
      3701      3700      3702      3701      3700      3703      3702      3700      3703
      3696      3704      3705      3696      3704      3706      3696      3704      3707
      3705      3704      3706      3705      3704      3707      3706      3704      3707
      3696      3708      3709      3696      3708      3710      3696      3708      3711
      3709      3708      3710      3709      3708      3711      3710      3708      3711
      3697      3712      3713      3697      3712      3714      3697      3712      3718
      3713      3712      3714      3713      3712      3718      3714      3712      3718
      3716      3715      3717      3716      3715      3718      3716      3715      3719
      3717      3715      3718      3717      3715      3719      3718      3715      3719
      3712      3718      3715      3715      3719      3720      3719      3720      3721
      3719      3720      3722      3719      3720      3723      3721      3720      3722
      3721      3720      3723      3722      3720      3723      3720      3723      3724
      3720      3723      3725      3720      3723      3731      3724      3723      3725
      3724      3723      3731      3725      3723      3731      3723      3725      3726
      3725      3726      3727      3725      3726      3728      3727      3726      3728
      3726      3728      3729      3726      3728      3730      3726      3728      3740
      3729      3728      3730      3729      3728      3740      3730      3728      3740
      3723      3731      3732      3723      3731      3733      3723      3731      3734
      3732      3731      3733      3732      3731      3734      3733      3731      3734
      3731      3734      3735      3734      3735      3736      3734      3735      3737
      3736      3735      3737      3735      3737      3738      3735      3737      3739
      3735      3737      3787      3738      3737      3739      3738      3737      3787
      3739      3737      3787      3728      3740      3741      3728      3740      3742
      3728      3740      3743      3741      3740      3742      3741      3740      3743
      3742      3740      3743      3740      3743      3744      3740      3743      3745
      3740      3743      3746      3744      3743      3745      3744      3743      3746
      3745      3743      3746      3743      3746      3747      3743      3746      3748
      3743      3746      3749      3747      3746      3748      3747      3746      3749
      3748      3746      3749      3746      3749      3750      3746      3749      3751
      3746      3749      3752      3750      3749      3751      3750      3749      3752
      3751      3749      3752      3749      3752      3753      3749      3752      3754
      3749      3752      3755      3753      3752      3754      3753      3752      3755
      3754      3752      3755      3752      3755      3756      3752      3755      3757
      3752      3755      3758      3756      3755      3757      3756      3755      3758
      3757      3755      3758      3755      3758      3759      3755      3758      3760
      3759      3758      3760      3758      3760      3761      3758      3760      3762
      3761      3760      3762      3760      3762      3763      3760      3762      3764
      3760      3762      3765      3763      3762      3764      3763      3762      3765
      3764      3762      3765      3762      3765      3766      3762      3765      3767
      3762      3765      3768      3766      3765      3767      3766      3765      3768
      3767      3765      3768      3765      3768      3769      3765      3768      3770
      3765      3768      3771      3769      3768      3770      3769      3768      3771
      3770      3768      3771      3768      3771      3772      3768      3771      3773
      3768      3771      3774      3772      3771      3773      3772      3771      3774
      3773      3771      3774      3771      3774      3775      3771      3774      3776
      3771      3774      3777      3775      3774      3776      3775      3774      3777
      3776      3774      3777      3774      3777      3778      3774      3777      3779
      3774      3777      3780      3778      3777      3779      3778      3777      3780
      3779      3777      3780      3777      3780      3781      3777      3780      3782
      3777      3780      3783      3781      3780      3782      3781      3780      3783
      3782      3780      3783      3780      3783      3784      3780      3783      3785
      3780      3783      3786      3784      3783      3785      3784      3783      3786
      3785      3783      3786      3737      3787      3788      3737      3787      3789
      3737      3787      3790      3788      3787      3789      3788      3787      3790
      3789      3787      3790      3787      3790      3791      3787      3790      3792
      3787      3790      3793      3791      3790      3792      3791      3790      3793
      3792      3790      3793      3790      3793      3794      3790      3793      3795
      3790      3793      3796      3794      3793      3795      3794      3793      3796
      3795      3793      3796      3793      3796      3797      3793      3796      3798
      3793      3796      3799      3797      3796      3798      3797      3796      3799
      3798      3796      3799      3796      3799      3800      3796      3799      3801
      3796      3799      3802      3800      3799      3801      3800      3799      3802
      3801      3799      3802      3799      3802      3803      3799      3802      3804
      3799      3802      3805      3803      3802      3804      3803      3802      3805
      3804      3802      3805      3802      3805      3806      3802      3805      3807
      3802      3805      3808      3806      3805      3807      3806      3805      3808
      3807      3805      3808      3805      3808      3809      3805      3808      3810
      3805      3808      3811      3809      3808      3810      3809      3808      3811
      3810      3808      3811      3808      3811      3812      3808      3811      3813
      3808      3811      3814      3812      3811      3813      3812      3811      3814
      3813      3811      3814      3811      3814      3815      3811      3814      3816
      3811      3814      3817      3815      3814      3816      3815      3814      3817
      3816      3814      3817      3814      3817      3818      3814      3817      3819
      3814      3817      3820      3818      3817      3819      3818      3817      3820
      3819      3817      3820      3817      3820      3821      3817      3820      3822
      3817      3820      3823      3821      3820      3822      3821      3820      3823
      3822      3820      3823      3820      3823      3824      3820      3823      3825
      3820      3823      3826      3824      3823      3825      3824      3823      3826
      3825      3823      3826      3823      3826      3827      3823      3826      3828
      3823      3826      3829      3827      3826      3828      3827      3826      3829
      3828      3826      3829      3831      3830      3834      3831      3830      3838
      3831      3830      3842      3834      3830      3838      3834      3830      3842
      3838      3830      3842      3830      3831      3832      3830      3831      3833
      3830      3831      3846      3832      3831      3833      3832      3831      3846
      3833      3831      3846      3830      3834      3835      3830      3834      3836
      3830      3834      3837      3835      3834      3836      3835      3834      3837
      3836      3834      3837      3830      3838      3839      3830      3838      3840
      3830      3838      3841      3839      3838      3840      3839      3838      3841
      3840      3838      3841      3830      3842      3843      3830      3842      3844
      3830      3842      3845      3843      3842      3844      3843      3842      3845
      3844      3842      3845      3831      3846      3847      3831      3846      3848
      3831      3846      3852      3847      3846      3848      3847      3846      3852
      3848      3846      3852      3850      3849      3851      3850      3849      3852
      3850      3849      3853      3851      3849      3852      3851      3849      3853
      3852      3849      3853      3846      3852      3849      3849      3853      3854
      3853      3854      3855      3853      3854      3856      3853      3854      3857
      3855      3854      3856      3855      3854      3857      3856      3854      3857
      3854      3857      3858      3854      3857      3859      3854      3857      3865
      3858      3857      3859      3858      3857      3865      3859      3857      3865
      3857      3859      3860      3859      3860      3861      3859      3860      3862
      3861      3860      3862      3860      3862      3863      3860      3862      3864
      3860      3862      3874      3863      3862      3864      3863      3862      3874
      3864      3862      3874      3857      3865      3866      3857      3865      3867
      3857      3865      3868      3866      3865      3867      3866      3865      3868
      3867      3865      3868      3865      3868      3869      3868      3869      3870
      3868      3869      3871      3870      3869      3871      3869      3871      3872
      3869      3871      3873      3869      3871      3921      3872      3871      3873
      3872      3871      3921      3873      3871      3921      3862      3874      3875
      3862      3874      3876      3862      3874      3877      3875      3874      3876
      3875      3874      3877      3876      3874      3877      3874      3877      3878
      3874      3877      3879      3874      3877      3880      3878      3877      3879
      3878      3877      3880      3879      3877      3880      3877      3880      3881
      3877      3880      3882      3877      3880      3883      3881      3880      3882
      3881      3880      3883      3882      3880      3883      3880      3883      3884
      3880      3883      3885      3880      3883      3886      3884      3883      3885
      3884      3883      3886      3885      3883      3886      3883      3886      3887
      3883      3886      3888      3883      3886      3889      3887      3886      3888
      3887      3886      3889      3888      3886      3889      3886      3889      3890
      3886      3889      3891      3886      3889      3892      3890      3889      3891
      3890      3889      3892      3891      3889      3892      3889      3892      3893
      3889      3892      3894      3893      3892      3894      3892      3894      3895
      3892      3894      3896      3895      3894      3896      3894      3896      3897
      3894      3896      3898      3894      3896      3899      3897      3896      3898
      3897      3896      3899      3898      3896      3899      3896      3899      3900
      3896      3899      3901      3896      3899      3902      3900      3899      3901
      3900      3899      3902      3901      3899      3902      3899      3902      3903
      3899      3902      3904      3899      3902      3905      3903      3902      3904
      3903      3902      3905      3904      3902      3905      3902      3905      3906
      3902      3905      3907      3902      3905      3908      3906      3905      3907
      3906      3905      3908      3907      3905      3908      3905      3908      3909
      3905      3908      3910      3905      3908      3911      3909      3908      3910
      3909      3908      3911      3910      3908      3911      3908      3911      3912
      3908      3911      3913      3908      3911      3914      3912      3911      3913
      3912      3911      3914      3913      3911      3914      3911      3914      3915
      3911      3914      3916      3911      3914      3917      3915      3914      3916
      3915      3914      3917      3916      3914      3917      3914      3917      3918
      3914      3917      3919      3914      3917      3920      3918      3917      3919
      3918      3917      3920      3919      3917      3920      3871      3921      3922
      3871      3921      3923      3871      3921      3924      3922      3921      3923
      3922      3921      3924      3923      3921      3924      3921      3924      3925
      3921      3924      3926      3921      3924      3927      3925      3924      3926
      3925      3924      3927      3926      3924      3927      3924      3927      3928
      3924      3927      3929      3924      3927      3930      3928      3927      3929
      3928      3927      3930      3929      3927      3930      3927      3930      3931
      3927      3930      3932      3927      3930      3933      3931      3930      3932
      3931      3930      3933      3932      3930      3933      3930      3933      3934
      3930      3933      3935      3930      3933      3936      3934      3933      3935
      3934      3933      3936      3935      3933      3936      3933      3936      3937
      3933      3936      3938      3933      3936      3939      3937      3936      3938
      3937      3936      3939      3938      3936      3939      3936      3939      3940
      3936      3939      3941      3936      3939      3942      3940      3939      3941
      3940      3939      3942      3941      3939      3942      3939      3942      3943
      3939      3942      3944      3939      3942      3945      3943      3942      3944
      3943      3942      3945      3944      3942      3945      3942      3945      3946
      3942      3945      3947      3942      3945      3948      3946      3945      3947
      3946      3945      3948      3947      3945      3948      3945      3948      3949
      3945      3948      3950      3945      3948      3951      3949      3948      3950
      3949      3948      3951      3950      3948      3951      3948      3951      3952
      3948      3951      3953      3948      3951      3954      3952      3951      3953
      3952      3951      3954      3953      3951      3954      3951      3954      3955
      3951      3954      3956      3951      3954      3957      3955      3954      3956
      3955      3954      3957      3956      3954      3957      3954      3957      3958
      3954      3957      3959      3954      3957      3960      3958      3957      3959
      3958      3957      3960      3959      3957      3960      3957      3960      3961
      3957      3960      3962      3957      3960      3963      3961      3960      3962
      3961      3960      3963      3962      3960      3963      3965      3964      3968
      3965      3964      3972      3965      3964      3976      3968      3964      3972
      3968      3964      3976      3972      3964      3976      3964      3965      3966
      3964      3965      3967      3964      3965      3980      3966      3965      3967
      3966      3965      3980      3967      3965      3980      3964      3968      3969
      3964      3968      3970      3964      3968      3971      3969      3968      3970
      3969      3968      3971      3970      3968      3971      3964      3972      3973
      3964      3972      3974      3964      3972      3975      3973      3972      3974
      3973      3972      3975      3974      3972      3975      3964      3976      3977
      3964      3976      3978      3964      3976      3979      3977      3976      3978
      3977      3976      3979      3978      3976      3979      3965      3980      3981
      3965      3980      3982      3965      3980      3986      3981      3980      3982
      3981      3980      3986      3982      3980      3986      3984      3983      3985
      3984      3983      3986      3984      3983      3987      3985      3983      3986
      3985      3983      3987      3986      3983      3987      3980      3986      3983
      3983      3987      3988      3987      3988      3989      3987      3988      3990
      3987      3988      3991      3989      3988      3990      3989      3988      3991
      3990      3988      3991      3988      3991      3992      3988      3991      3993
      3988      3991      3999      3992      3991      3993      3992      3991      3999
      3993      3991      3999      3991      3993      3994      3993      3994      3995
      3993      3994      3996      3995      3994      3996      3994      3996      3997
      3994      3996      3998      3994      3996      4008      3997      3996      3998
      3997      3996      4008      3998      3996      4008      3991      3999      4000
      3991      3999      4001      3991      3999      4002      4000      3999      4001
      4000      3999      4002      4001      3999      4002      3999      4002      4003
      4002      4003      4004      4002      4003      4005      4004      4003      4005
      4003      4005      4006      4003      4005      4007      4003      4005      4055
      4006      4005      4007      4006      4005      4055      4007      4005      4055
      3996      4008      4009      3996      4008      4010      3996      4008      4011
      4009      4008      4010      4009      4008      4011      4010      4008      4011
      4008      4011      4012      4008      4011      4013      4008      4011      4014
      4012      4011      4013      4012      4011      4014      4013      4011      4014
      4011      4014      4015      4011      4014      4016      4011      4014      4017
      4015      4014      4016      4015      4014      4017      4016      4014      4017
      4014      4017      4018      4014      4017      4019      4014      4017      4020
      4018      4017      4019      4018      4017      4020      4019      4017      4020
      4017      4020      4021      4017      4020      4022      4017      4020      4023
      4021      4020      4022      4021      4020      4023      4022      4020      4023
      4020      4023      4024      4020      4023      4025      4020      4023      4026
      4024      4023      4025      4024      4023      4026      4025      4023      4026
      4023      4026      4027      4023      4026      4028      4027      4026      4028
      4026      4028      4029      4026      4028      4030      4029      4028      4030
      4028      4030      4031      4028      4030      4032      4028      4030      4033
      4031      4030      4032      4031      4030      4033      4032      4030      4033
      4030      4033      4034      4030      4033      4035      4030      4033      4036
      4034      4033      4035      4034      4033      4036      4035      4033      4036
      4033      4036      4037      4033      4036      4038      4033      4036      4039
      4037      4036      4038      4037      4036      4039      4038      4036      4039
      4036      4039      4040      4036      4039      4041      4036      4039      4042
      4040      4039      4041      4040      4039      4042      4041      4039      4042
      4039      4042      4043      4039      4042      4044      4039      4042      4045
      4043      4042      4044      4043      4042      4045      4044      4042      4045
      4042      4045      4046      4042      4045      4047      4042      4045      4048
      4046      4045      4047      4046      4045      4048      4047      4045      4048
      4045      4048      4049      4045      4048      4050      4045      4048      4051
      4049      4048      4050      4049      4048      4051      4050      4048      4051
      4048      4051      4052      4048      4051      4053      4048      4051      4054
      4052      4051      4053      4052      4051      4054      4053      4051      4054
      4005      4055      4056      4005      4055      4057      4005      4055      4058
      4056      4055      4057      4056      4055      4058      4057      4055      4058
      4055      4058      4059      4055      4058      4060      4055      4058      4061
      4059      4058      4060      4059      4058      4061      4060      4058      4061
      4058      4061      4062      4058      4061      4063      4058      4061      4064
      4062      4061      4063      4062      4061      4064      4063      4061      4064
      4061      4064      4065      4061      4064      4066      4061      4064      4067
      4065      4064      4066      4065      4064      4067      4066      4064      4067
      4064      4067      4068      4064      4067      4069      4064      4067      4070
      4068      4067      4069      4068      4067      4070      4069      4067      4070
      4067      4070      4071      4067      4070      4072      4067      4070      4073
      4071      4070      4072      4071      4070      4073      4072      4070      4073
      4070      4073      4074      4070      4073      4075      4070      4073      4076
      4074      4073      4075      4074      4073      4076      4075      4073      4076
      4073      4076      4077      4073      4076      4078      4073      4076      4079
      4077      4076      4078      4077      4076      4079      4078      4076      4079
      4076      4079      4080      4076      4079      4081      4076      4079      4082
      4080      4079      4081      4080      4079      4082      4081      4079      4082
      4079      4082      4083      4079      4082      4084      4079      4082      4085
      4083      4082      4084      4083      4082      4085      4084      4082      4085
      4082      4085      4086      4082      4085      4087      4082      4085      4088
      4086      4085      4087      4086      4085      4088      4087      4085      4088
      4085      4088      4089      4085      4088      4090      4085      4088      4091
      4089      4088      4090      4089      4088      4091      4090      4088      4091
      4088      4091      4092      4088      4091      4093      4088      4091      4094
      4092      4091      4093      4092      4091      4094      4093      4091      4094
      4091      4094      4095      4091      4094      4096      4091      4094      4097
      4095      4094      4096      4095      4094      4097      4096      4094      4097
      4099      4098      4100      4099      4098      4101      4099      4098      4102
      4100      4098      4101      4100      4098      4102      4101      4098      4102
      4098      4102      4103      4098      4102      4104      4098      4102      4107
      4103      4102      4104      4103      4102      4107      4104      4102      4107
      4102      4104      4105      4102      4104      4106      4105      4104      4106
      4102      4107      4108      4102      4107      4109      4102      4107      4113
      4108      4107      4109      4108      4107      4113      4109      4107      4113
      4111      4110      4112      4111      4110      4113      4111      4110      4114
      4112      4110      4113      4112      4110      4114      4113      4110      4114
      4107      4113      4110      4110      4114      4115      4114      4115      4116
      4114      4115      4117      4114      4115      4118      4116      4115      4117
      4116      4115      4118      4117      4115      4118      4115      4118      4119
      4115      4118      4120      4115      4118      4126      4119      4118      4120
      4119      4118      4126      4120      4118      4126      4118      4120      4121
      4120      4121      4122      4120      4121      4123      4122      4121      4123
      4121      4123      4124      4121      4123      4125      4121      4123      4135
      4124      4123      4125      4124      4123      4135      4125      4123      4135
      4118      4126      4127      4118      4126      4128      4118      4126      4129
      4127      4126      4128      4127      4126      4129      4128      4126      4129
      4126      4129      4130      4129      4130      4131      4129      4130      4132
      4131      4130      4132      4130      4132      4133      4130      4132      4134
      4130      4132      4182      4133      4132      4134      4133      4132      4182
      4134      4132      4182      4123      4135      4136      4123      4135      4137
      4123      4135      4138      4136      4135      4137      4136      4135      4138
      4137      4135      4138      4135      4138      4139      4135      4138      4140
      4135      4138      4141      4139      4138      4140      4139      4138      4141
      4140      4138      4141      4138      4141      4142      4138      4141      4143
      4138      4141      4144      4142      4141      4143      4142      4141      4144
      4143      4141      4144      4141      4144      4145      4141      4144      4146
      4141      4144      4147      4145      4144      4146      4145      4144      4147
      4146      4144      4147      4144      4147      4148      4144      4147      4149
      4144      4147      4150      4148      4147      4149      4148      4147      4150
      4149      4147      4150      4147      4150      4151      4147      4150      4152
      4147      4150      4153      4151      4150      4152      4151      4150      4153
      4152      4150      4153      4150      4153      4154      4150      4153      4155
      4154      4153      4155      4153      4155      4156      4153      4155      4157
      4156      4155      4157      4155      4157      4158      4155      4157      4159
      4155      4157      4160      4158      4157      4159      4158      4157      4160
      4159      4157      4160      4157      4160      4161      4157      4160      4162
      4157      4160      4163      4161      4160      4162      4161      4160      4163
      4162      4160      4163      4160      4163      4164      4160      4163      4165
      4160      4163      4166      4164      4163      4165      4164      4163      4166
      4165      4163      4166      4163      4166      4167      4163      4166      4168
      4163      4166      4169      4167      4166      4168      4167      4166      4169
      4168      4166      4169      4166      4169      4170      4166      4169      4171
      4166      4169      4172      4170      4169      4171      4170      4169      4172
      4171      4169      4172      4169      4172      4173      4169      4172      4174
      4169      4172      4175      4173      4172      4174      4173      4172      4175
      4174      4172      4175      4172      4175      4176      4172      4175      4177
      4172      4175      4178      4176      4175      4177      4176      4175      4178
      4177      4175      4178      4175      4178      4179      4175      4178      4180
      4175      4178      4181      4179      4178      4180      4179      4178      4181
      4180      4178      4181      4132      4182      4183      4132      4182      4184
      4132      4182      4185      4183      4182      4184      4183      4182      4185
      4184      4182      4185      4182      4185      4186      4182      4185      4187
      4182      4185      4188      4186      4185      4187      4186      4185      4188
      4187      4185      4188      4185      4188      4189      4185      4188      4190
      4185      4188      4191      4189      4188      4190      4189      4188      4191
      4190      4188      4191      4188      4191      4192      4188      4191      4193
      4188      4191      4194      4192      4191      4193      4192      4191      4194
      4193      4191      4194      4191      4194      4195      4191      4194      4196
      4191      4194      4197      4195      4194      4196      4195      4194      4197
      4196      4194      4197      4194      4197      4198      4194      4197      4199
      4194      4197      4200      4198      4197      4199      4198      4197      4200
      4199      4197      4200      4197      4200      4201      4197      4200      4202
      4197      4200      4203      4201      4200      4202      4201      4200      4203
      4202      4200      4203      4200      4203      4204      4200      4203      4205
      4200      4203      4206      4204      4203      4205      4204      4203      4206
      4205      4203      4206      4203      4206      4207      4203      4206      4208
      4203      4206      4209      4207      4206      4208      4207      4206      4209
      4208      4206      4209      4206      4209      4210      4206      4209      4211
      4206      4209      4212      4210      4209      4211      4210      4209      4212
      4211      4209      4212      4209      4212      4213      4209      4212      4214
      4209      4212      4215      4213      4212      4214      4213      4212      4215
      4214      4212      4215      4212      4215      4216      4212      4215      4217
      4212      4215      4218      4216      4215      4217      4216      4215      4218
      4217      4215      4218      4215      4218      4219      4215      4218      4220
      4215      4218      4221      4219      4218      4220      4219      4218      4221
      4220      4218      4221      4218      4221      4222      4218      4221      4223
      4218      4221      4224      4222      4221      4223      4222      4221      4224
      4223      4221      4224      4226      4225      4229      4226      4225      4233
      4226      4225      4237      4229      4225      4233      4229      4225      4237
      4233      4225      4237      4225      4226      4227      4225      4226      4228
      4225      4226      4241      4227      4226      4228      4227      4226      4241
      4228      4226      4241      4225      4229      4230      4225      4229      4231
      4225      4229      4232      4230      4229      4231      4230      4229      4232
      4231      4229      4232      4225      4233      4234      4225      4233      4235
      4225      4233      4236      4234      4233      4235      4234      4233      4236
      4235      4233      4236      4225      4237      4238      4225      4237      4239
      4225      4237      4240      4238      4237      4239      4238      4237      4240
      4239      4237      4240      4226      4241      4242      4226      4241      4243
      4226      4241      4247      4242      4241      4243      4242      4241      4247
      4243      4241      4247      4245      4244      4246      4245      4244      4247
      4245      4244      4248      4246      4244      4247      4246      4244      4248
      4247      4244      4248      4241      4247      4244      4244      4248      4249
      4248      4249      4250      4248      4249      4251      4248      4249      4252
      4250      4249      4251      4250      4249      4252      4251      4249      4252
      4249      4252      4253      4249      4252      4254      4249      4252      4260
      4253      4252      4254      4253      4252      4260      4254      4252      4260
      4252      4254      4255      4254      4255      4256      4254      4255      4257
      4256      4255      4257      4255      4257      4258      4255      4257      4259
      4255      4257      4269      4258      4257      4259      4258      4257      4269
      4259      4257      4269      4252      4260      4261      4252      4260      4262
      4252      4260      4263      4261      4260      4262      4261      4260      4263
      4262      4260      4263      4260      4263      4264      4263      4264      4265
      4263      4264      4266      4265      4264      4266      4264      4266      4267
      4264      4266      4268      4264      4266      4316      4267      4266      4268
      4267      4266      4316      4268      4266      4316      4257      4269      4270
      4257      4269      4271      4257      4269      4272      4270      4269      4271
      4270      4269      4272      4271      4269      4272      4269      4272      4273
      4269      4272      4274      4269      4272      4275      4273      4272      4274
      4273      4272      4275      4274      4272      4275      4272      4275      4276
      4272      4275      4277      4272      4275      4278      4276      4275      4277
      4276      4275      4278      4277      4275      4278      4275      4278      4279
      4275      4278      4280      4275      4278      4281      4279      4278      4280
      4279      4278      4281      4280      4278      4281      4278      4281      4282
      4278      4281      4283      4278      4281      4284      4282      4281      4283
      4282      4281      4284      4283      4281      4284      4281      4284      4285
      4281      4284      4286      4281      4284      4287      4285      4284      4286
      4285      4284      4287      4286      4284      4287      4284      4287      4288
      4284      4287      4289      4288      4287      4289      4287      4289      4290
      4287      4289      4291      4290      4289      4291      4289      4291      4292
      4289      4291      4293      4289      4291      4294      4292      4291      4293
      4292      4291      4294      4293      4291      4294      4291      4294      4295
      4291      4294      4296      4291      4294      4297      4295      4294      4296
      4295      4294      4297      4296      4294      4297      4294      4297      4298
      4294      4297      4299      4294      4297      4300      4298      4297      4299
      4298      4297      4300      4299      4297      4300      4297      4300      4301
      4297      4300      4302      4297      4300      4303      4301      4300      4302
      4301      4300      4303      4302      4300      4303      4300      4303      4304
      4300      4303      4305      4300      4303      4306      4304      4303      4305
      4304      4303      4306      4305      4303      4306      4303      4306      4307
      4303      4306      4308      4303      4306      4309      4307      4306      4308
      4307      4306      4309      4308      4306      4309      4306      4309      4310
      4306      4309      4311      4306      4309      4312      4310      4309      4311
      4310      4309      4312      4311      4309      4312      4309      4312      4313
      4309      4312      4314      4309      4312      4315      4313      4312      4314
      4313      4312      4315      4314      4312      4315      4266      4316      4317
      4266      4316      4318      4266      4316      4319      4317      4316      4318
      4317      4316      4319      4318      4316      4319      4316      4319      4320
      4316      4319      4321      4316      4319      4322      4320      4319      4321
      4320      4319      4322      4321      4319      4322      4319      4322      4323
      4319      4322      4324      4319      4322      4325      4323      4322      4324
      4323      4322      4325      4324      4322      4325      4322      4325      4326
      4322      4325      4327      4322      4325      4328      4326      4325      4327
      4326      4325      4328      4327      4325      4328      4325      4328      4329
      4325      4328      4330      4325      4328      4331      4329      4328      4330
      4329      4328      4331      4330      4328      4331      4328      4331      4332
      4328      4331      4333      4328      4331      4334      4332      4331      4333
      4332      4331      4334      4333      4331      4334      4331      4334      4335
      4331      4334      4336      4331      4334      4337      4335      4334      4336
      4335      4334      4337      4336      4334      4337      4334      4337      4338
      4334      4337      4339      4334      4337      4340      4338      4337      4339
      4338      4337      4340      4339      4337      4340      4337      4340      4341
      4337      4340      4342      4337      4340      4343      4341      4340      4342
      4341      4340      4343      4342      4340      4343      4340      4343      4344
      4340      4343      4345      4340      4343      4346      4344      4343      4345
      4344      4343      4346      4345      4343      4346      4343      4346      4347
      4343      4346      4348      4343      4346      4349      4347      4346      4348
      4347      4346      4349      4348      4346      4349      4346      4349      4350
      4346      4349      4351      4346      4349      4352      4350      4349      4351
      4350      4349      4352      4351      4349      4352      4349      4352      4353
      4349      4352      4354      4349      4352      4355      4353      4352      4354
      4353      4352      4355      4354      4352      4355      4352      4355      4356
      4352      4355      4357      4352      4355      4358      4356      4355      4357
      4356      4355      4358      4357      4355      4358      4360      4359      4363
      4360      4359      4367      4360      4359      4371      4363      4359      4367
      4363      4359      4371      4367      4359      4371      4359      4360      4361
      4359      4360      4362      4359      4360      4375      4361      4360      4362
      4361      4360      4375      4362      4360      4375      4359      4363      4364
      4359      4363      4365      4359      4363      4366      4364      4363      4365
      4364      4363      4366      4365      4363      4366      4359      4367      4368
      4359      4367      4369      4359      4367      4370      4368      4367      4369
      4368      4367      4370      4369      4367      4370      4359      4371      4372
      4359      4371      4373      4359      4371      4374      4372      4371      4373
      4372      4371      4374      4373      4371      4374      4360      4375      4376
      4360      4375      4377      4360      4375      4381      4376      4375      4377
      4376      4375      4381      4377      4375      4381      4379      4378      4380
      4379      4378      4381      4379      4378      4382      4380      4378      4381
      4380      4378      4382      4381      4378      4382      4375      4381      4378
      4378      4382      4383      4382      4383      4384      4382      4383      4385
      4382      4383      4386      4384      4383      4385      4384      4383      4386
      4385      4383      4386      4383      4386      4387      4383      4386      4388
      4383      4386      4394      4387      4386      4388      4387      4386      4394
      4388      4386      4394      4386      4388      4389      4388      4389      4390
      4388      4389      4391      4390      4389      4391      4389      4391      4392
      4389      4391      4393      4389      4391      4403      4392      4391      4393
      4392      4391      4403      4393      4391      4403      4386      4394      4395
      4386      4394      4396      4386      4394      4397      4395      4394      4396
      4395      4394      4397      4396      4394      4397      4394      4397      4398
      4397      4398      4399      4397      4398      4400      4399      4398      4400
      4398      4400      4401      4398      4400      4402      4398      4400      4450
      4401      4400      4402      4401      4400      4450      4402      4400      4450
      4391      4403      4404      4391      4403      4405      4391      4403      4406
      4404      4403      4405      4404      4403      4406      4405      4403      4406
      4403      4406      4407      4403      4406      4408      4403      4406      4409
      4407      4406      4408      4407      4406      4409      4408      4406      4409
      4406      4409      4410      4406      4409      4411      4406      4409      4412
      4410      4409      4411      4410      4409      4412      4411      4409      4412
      4409      4412      4413      4409      4412      4414      4409      4412      4415
      4413      4412      4414      4413      4412      4415      4414      4412      4415
      4412      4415      4416      4412      4415      4417      4412      4415      4418
      4416      4415      4417      4416      4415      4418      4417      4415      4418
      4415      4418      4419      4415      4418      4420      4415      4418      4421
      4419      4418      4420      4419      4418      4421      4420      4418      4421
      4418      4421      4422      4418      4421      4423      4422      4421      4423
      4421      4423      4424      4421      4423      4425      4424      4423      4425
      4423      4425      4426      4423      4425      4427      4423      4425      4428
      4426      4425      4427      4426      4425      4428      4427      4425      4428
      4425      4428      4429      4425      4428      4430      4425      4428      4431
      4429      4428      4430      4429      4428      4431      4430      4428      4431
      4428      4431      4432      4428      4431      4433      4428      4431      4434
      4432      4431      4433      4432      4431      4434      4433      4431      4434
      4431      4434      4435      4431      4434      4436      4431      4434      4437
      4435      4434      4436      4435      4434      4437      4436      4434      4437
      4434      4437      4438      4434      4437      4439      4434      4437      4440
      4438      4437      4439      4438      4437      4440      4439      4437      4440
      4437      4440      4441      4437      4440      4442      4437      4440      4443
      4441      4440      4442      4441      4440      4443      4442      4440      4443
      4440      4443      4444      4440      4443      4445      4440      4443      4446
      4444      4443      4445      4444      4443      4446      4445      4443      4446
      4443      4446      4447      4443      4446      4448      4443      4446      4449
      4447      4446      4448      4447      4446      4449      4448      4446      4449
      4400      4450      4451      4400      4450      4452      4400      4450      4453
      4451      4450      4452      4451      4450      4453      4452      4450      4453
      4450      4453      4454      4450      4453      4455      4450      4453      4456
      4454      4453      4455      4454      4453      4456      4455      4453      4456
      4453      4456      4457      4453      4456      4458      4453      4456      4459
      4457      4456      4458      4457      4456      4459      4458      4456      4459
      4456      4459      4460      4456      4459      4461      4456      4459      4462
      4460      4459      4461      4460      4459      4462      4461      4459      4462
      4459      4462      4463      4459      4462      4464      4459      4462      4465
      4463      4462      4464      4463      4462      4465      4464      4462      4465
      4462      4465      4466      4462      4465      4467      4462      4465      4468
      4466      4465      4467      4466      4465      4468      4467      4465      4468
      4465      4468      4469      4465      4468      4470      4465      4468      4471
      4469      4468      4470      4469      4468      4471      4470      4468      4471
      4468      4471      4472      4468      4471      4473      4468      4471      4474
      4472      4471      4473      4472      4471      4474      4473      4471      4474
      4471      4474      4475      4471      4474      4476      4471      4474      4477
      4475      4474      4476      4475      4474      4477      4476      4474      4477
      4474      4477      4478      4474      4477      4479      4474      4477      4480
      4478      4477      4479      4478      4477      4480      4479      4477      4480
      4477      4480      4481      4477      4480      4482      4477      4480      4483
      4481      4480      4482      4481      4480      4483      4482      4480      4483
      4480      4483      4484      4480      4483      4485      4480      4483      4486
      4484      4483      4485      4484      4483      4486      4485      4483      4486
      4483      4486      4487      4483      4486      4488      4483      4486      4489
      4487      4486      4488      4487      4486      4489      4488      4486      4489
      4486      4489      4490      4486      4489      4491      4486      4489      4492
      4490      4489      4491      4490      4489      4492      4491      4489      4492
      4494      4493      4497      4494      4493      4501      4494      4493      4505
      4497      4493      4501      4497      4493      4505      4501      4493      4505
      4493      4494      4495      4493      4494      4496      4493      4494      4509
      4495      4494      4496      4495      4494      4509      4496      4494      4509
      4493      4497      4498      4493      4497      4499      4493      4497      4500
      4498      4497      4499      4498      4497      4500      4499      4497      4500
      4493      4501      4502      4493      4501      4503      4493      4501      4504
      4502      4501      4503      4502      4501      4504      4503      4501      4504
      4493      4505      4506      4493      4505      4507      4493      4505      4508
      4506      4505      4507      4506      4505      4508      4507      4505      4508
      4494      4509      4510      4494      4509      4511      4494      4509      4515
      4510      4509      4511      4510      4509      4515      4511      4509      4515
      4513      4512      4514      4513      4512      4515      4513      4512      4516
      4514      4512      4515      4514      4512      4516      4515      4512      4516
      4509      4515      4512      4512      4516      4517      4516      4517      4518
      4516      4517      4519      4516      4517      4520      4518      4517      4519
      4518      4517      4520      4519      4517      4520      4517      4520      4521
      4517      4520      4522      4517      4520      4528      4521      4520      4522
      4521      4520      4528      4522      4520      4528      4520      4522      4523
      4522      4523      4524      4522      4523      4525      4524      4523      4525
      4523      4525      4526      4523      4525      4527      4523      4525      4537
      4526      4525      4527      4526      4525      4537      4527      4525      4537
      4520      4528      4529      4520      4528      4530      4520      4528      4531
      4529      4528      4530      4529      4528      4531      4530      4528      4531
      4528      4531      4532      4531      4532      4533      4531      4532      4534
      4533      4532      4534      4532      4534      4535      4532      4534      4536
      4532      4534      4584      4535      4534      4536      4535      4534      4584
      4536      4534      4584      4525      4537      4538      4525      4537      4539
      4525      4537      4540      4538      4537      4539      4538      4537      4540
      4539      4537      4540      4537      4540      4541      4537      4540      4542
      4537      4540      4543      4541      4540      4542      4541      4540      4543
      4542      4540      4543      4540      4543      4544      4540      4543      4545
      4540      4543      4546      4544      4543      4545      4544      4543      4546
      4545      4543      4546      4543      4546      4547      4543      4546      4548
      4543      4546      4549      4547      4546      4548      4547      4546      4549
      4548      4546      4549      4546      4549      4550      4546      4549      4551
      4546      4549      4552      4550      4549      4551      4550      4549      4552
      4551      4549      4552      4549      4552      4553      4549      4552      4554
      4549      4552      4555      4553      4552      4554      4553      4552      4555
      4554      4552      4555      4552      4555      4556      4552      4555      4557
      4556      4555      4557      4555      4557      4558      4555      4557      4559
      4558      4557      4559      4557      4559      4560      4557      4559      4561
      4557      4559      4562      4560      4559      4561      4560      4559      4562
      4561      4559      4562      4559      4562      4563      4559      4562      4564
      4559      4562      4565      4563      4562      4564      4563      4562      4565
      4564      4562      4565      4562      4565      4566      4562      4565      4567
      4562      4565      4568      4566      4565      4567      4566      4565      4568
      4567      4565      4568      4565      4568      4569      4565      4568      4570
      4565      4568      4571      4569      4568      4570      4569      4568      4571
      4570      4568      4571      4568      4571      4572      4568      4571      4573
      4568      4571      4574      4572      4571      4573      4572      4571      4574
      4573      4571      4574      4571      4574      4575      4571      4574      4576
      4571      4574      4577      4575      4574      4576      4575      4574      4577
      4576      4574      4577      4574      4577      4578      4574      4577      4579
      4574      4577      4580      4578      4577      4579      4578      4577      4580
      4579      4577      4580      4577      4580      4581      4577      4580      4582
      4577      4580      4583      4581      4580      4582      4581      4580      4583
      4582      4580      4583      4534      4584      4585      4534      4584      4586
      4534      4584      4587      4585      4584      4586      4585      4584      4587
      4586      4584      4587      4584      4587      4588      4584      4587      4589
      4584      4587      4590      4588      4587      4589      4588      4587      4590
      4589      4587      4590      4587      4590      4591      4587      4590      4592
      4587      4590      4593      4591      4590      4592      4591      4590      4593
      4592      4590      4593      4590      4593      4594      4590      4593      4595
      4590      4593      4596      4594      4593      4595      4594      4593      4596
      4595      4593      4596      4593      4596      4597      4593      4596      4598
      4593      4596      4599      4597      4596      4598      4597      4596      4599
      4598      4596      4599      4596      4599      4600      4596      4599      4601
      4596      4599      4602      4600      4599      4601      4600      4599      4602
      4601      4599      4602      4599      4602      4603      4599      4602      4604
      4599      4602      4605      4603      4602      4604      4603      4602      4605
      4604      4602      4605      4602      4605      4606      4602      4605      4607
      4602      4605      4608      4606      4605      4607      4606      4605      4608
      4607      4605      4608      4605      4608      4609      4605      4608      4610
      4605      4608      4611      4609      4608      4610      4609      4608      4611
      4610      4608      4611      4608      4611      4612      4608      4611      4613
      4608      4611      4614      4612      4611      4613      4612      4611      4614
      4613      4611      4614      4611      4614      4615      4611      4614      4616
      4611      4614      4617      4615      4614      4616      4615      4614      4617
      4616      4614      4617      4614      4617      4618      4614      4617      4619
      4614      4617      4620      4618      4617      4619      4618      4617      4620
      4619      4617      4620      4617      4620      4621      4617      4620      4622
      4617      4620      4623      4621      4620      4622      4621      4620      4623
      4622      4620      4623      4620      4623      4624      4620      4623      4625
      4620      4623      4626      4624      4623      4625      4624      4623      4626
      4625      4623      4626      4628      4627      4631      4628      4627      4635
      4628      4627      4639      4631      4627      4635      4631      4627      4639
      4635      4627      4639      4627      4628      4629      4627      4628      4630
      4627      4628      4643      4629      4628      4630      4629      4628      4643
      4630      4628      4643      4627      4631      4632      4627      4631      4633
      4627      4631      4634      4632      4631      4633      4632      4631      4634
      4633      4631      4634      4627      4635      4636      4627      4635      4637
      4627      4635      4638      4636      4635      4637      4636      4635      4638
      4637      4635      4638      4627      4639      4640      4627      4639      4641
      4627      4639      4642      4640      4639      4641      4640      4639      4642
      4641      4639      4642      4628      4643      4644      4628      4643      4645
      4628      4643      4649      4644      4643      4645      4644      4643      4649
      4645      4643      4649      4647      4646      4648      4647      4646      4649
      4647      4646      4650      4648      4646      4649      4648      4646      4650
      4649      4646      4650      4643      4649      4646      4646      4650      4651
      4650      4651      4652      4650      4651      4653      4650      4651      4654
      4652      4651      4653      4652      4651      4654      4653      4651      4654
      4651      4654      4655      4651      4654      4656      4651      4654      4662
      4655      4654      4656      4655      4654      4662      4656      4654      4662
      4654      4656      4657      4656      4657      4658      4656      4657      4659
      4658      4657      4659      4657      4659      4660      4657      4659      4661
      4657      4659      4671      4660      4659      4661      4660      4659      4671
      4661      4659      4671      4654      4662      4663      4654      4662      4664
      4654      4662      4665      4663      4662      4664      4663      4662      4665
      4664      4662      4665      4662      4665      4666      4665      4666      4667
      4665      4666      4668      4667      4666      4668      4666      4668      4669
      4666      4668      4670      4666      4668      4718      4669      4668      4670
      4669      4668      4718      4670      4668      4718      4659      4671      4672
      4659      4671      4673      4659      4671      4674      4672      4671      4673
      4672      4671      4674      4673      4671      4674      4671      4674      4675
      4671      4674      4676      4671      4674      4677      4675      4674      4676
      4675      4674      4677      4676      4674      4677      4674      4677      4678
      4674      4677      4679      4674      4677      4680      4678      4677      4679
      4678      4677      4680      4679      4677      4680      4677      4680      4681
      4677      4680      4682      4677      4680      4683      4681      4680      4682
      4681      4680      4683      4682      4680      4683      4680      4683      4684
      4680      4683      4685      4680      4683      4686      4684      4683      4685
      4684      4683      4686      4685      4683      4686      4683      4686      4687
      4683      4686      4688      4683      4686      4689      4687      4686      4688
      4687      4686      4689      4688      4686      4689      4686      4689      4690
      4686      4689      4691      4690      4689      4691      4689      4691      4692
      4689      4691      4693      4692      4691      4693      4691      4693      4694
      4691      4693      4695      4691      4693      4696      4694      4693      4695
      4694      4693      4696      4695      4693      4696      4693      4696      4697
      4693      4696      4698      4693      4696      4699      4697      4696      4698
      4697      4696      4699      4698      4696      4699      4696      4699      4700
      4696      4699      4701      4696      4699      4702      4700      4699      4701
      4700      4699      4702      4701      4699      4702      4699      4702      4703
      4699      4702      4704      4699      4702      4705      4703      4702      4704
      4703      4702      4705      4704      4702      4705      4702      4705      4706
      4702      4705      4707      4702      4705      4708      4706      4705      4707
      4706      4705      4708      4707      4705      4708      4705      4708      4709
      4705      4708      4710      4705      4708      4711      4709      4708      4710
      4709      4708      4711      4710      4708      4711      4708      4711      4712
      4708      4711      4713      4708      4711      4714      4712      4711      4713
      4712      4711      4714      4713      4711      4714      4711      4714      4715
      4711      4714      4716      4711      4714      4717      4715      4714      4716
      4715      4714      4717      4716      4714      4717      4668      4718      4719
      4668      4718      4720      4668      4718      4721      4719      4718      4720
      4719      4718      4721      4720      4718      4721      4718      4721      4722
      4718      4721      4723      4718      4721      4724      4722      4721      4723
      4722      4721      4724      4723      4721      4724      4721      4724      4725
      4721      4724      4726      4721      4724      4727      4725      4724      4726
      4725      4724      4727      4726      4724      4727      4724      4727      4728
      4724      4727      4729      4724      4727      4730      4728      4727      4729
      4728      4727      4730      4729      4727      4730      4727      4730      4731
      4727      4730      4732      4727      4730      4733      4731      4730      4732
      4731      4730      4733      4732      4730      4733      4730      4733      4734
      4730      4733      4735      4730      4733      4736      4734      4733      4735
      4734      4733      4736      4735      4733      4736      4733      4736      4737
      4733      4736      4738      4733      4736      4739      4737      4736      4738
      4737      4736      4739      4738      4736      4739      4736      4739      4740
      4736      4739      4741      4736      4739      4742      4740      4739      4741
      4740      4739      4742      4741      4739      4742      4739      4742      4743
      4739      4742      4744      4739      4742      4745      4743      4742      4744
      4743      4742      4745      4744      4742      4745      4742      4745      4746
      4742      4745      4747      4742      4745      4748      4746      4745      4747
      4746      4745      4748      4747      4745      4748      4745      4748      4749
      4745      4748      4750      4745      4748      4751      4749      4748      4750
      4749      4748      4751      4750      4748      4751      4748      4751      4752
      4748      4751      4753      4748      4751      4754      4752      4751      4753
      4752      4751      4754      4753      4751      4754      4751      4754      4755
      4751      4754      4756      4751      4754      4757      4755      4754      4756
      4755      4754      4757      4756      4754      4757      4754      4757      4758
      4754      4757      4759      4754      4757      4760      4758      4757      4759
      4758      4757      4760      4759      4757      4760      4762      4761      4765
      4762      4761      4769      4762      4761      4773      4765      4761      4769
      4765      4761      4773      4769      4761      4773      4761      4762      4763
      4761      4762      4764      4761      4762      4777      4763      4762      4764
      4763      4762      4777      4764      4762      4777      4761      4765      4766
      4761      4765      4767      4761      4765      4768      4766      4765      4767
      4766      4765      4768      4767      4765      4768      4761      4769      4770
      4761      4769      4771      4761      4769      4772      4770      4769      4771
      4770      4769      4772      4771      4769      4772      4761      4773      4774
      4761      4773      4775      4761      4773      4776      4774      4773      4775
      4774      4773      4776      4775      4773      4776      4762      4777      4778
      4762      4777      4779      4762      4777      4783      4778      4777      4779
      4778      4777      4783      4779      4777      4783      4781      4780      4782
      4781      4780      4783      4781      4780      4784      4782      4780      4783
      4782      4780      4784      4783      4780      4784      4777      4783      4780
      4780      4784      4785      4784      4785      4786      4784      4785      4787
      4784      4785      4788      4786      4785      4787      4786      4785      4788
      4787      4785      4788      4785      4788      4789      4785      4788      4790
      4785      4788      4796      4789      4788      4790      4789      4788      4796
      4790      4788      4796      4788      4790      4791      4790      4791      4792
      4790      4791      4793      4792      4791      4793      4791      4793      4794
      4791      4793      4795      4791      4793      4805      4794      4793      4795
      4794      4793      4805      4795      4793      4805      4788      4796      4797
      4788      4796      4798      4788      4796      4799      4797      4796      4798
      4797      4796      4799      4798      4796      4799      4796      4799      4800
      4799      4800      4801      4799      4800      4802      4801      4800      4802
      4800      4802      4803      4800      4802      4804      4800      4802      4852
      4803      4802      4804      4803      4802      4852      4804      4802      4852
      4793      4805      4806      4793      4805      4807      4793      4805      4808
      4806      4805      4807      4806      4805      4808      4807      4805      4808
      4805      4808      4809      4805      4808      4810      4805      4808      4811
      4809      4808      4810      4809      4808      4811      4810      4808      4811
      4808      4811      4812      4808      4811      4813      4808      4811      4814
      4812      4811      4813      4812      4811      4814      4813      4811      4814
      4811      4814      4815      4811      4814      4816      4811      4814      4817
      4815      4814      4816      4815      4814      4817      4816      4814      4817
      4814      4817      4818      4814      4817      4819      4814      4817      4820
      4818      4817      4819      4818      4817      4820      4819      4817      4820
      4817      4820      4821      4817      4820      4822      4817      4820      4823
      4821      4820      4822      4821      4820      4823      4822      4820      4823
      4820      4823      4824      4820      4823      4825      4824      4823      4825
      4823      4825      4826      4823      4825      4827      4826      4825      4827
      4825      4827      4828      4825      4827      4829      4825      4827      4830
      4828      4827      4829      4828      4827      4830      4829      4827      4830
      4827      4830      4831      4827      4830      4832      4827      4830      4833
      4831      4830      4832      4831      4830      4833      4832      4830      4833
      4830      4833      4834      4830      4833      4835      4830      4833      4836
      4834      4833      4835      4834      4833      4836      4835      4833      4836
      4833      4836      4837      4833      4836      4838      4833      4836      4839
      4837      4836      4838      4837      4836      4839      4838      4836      4839
      4836      4839      4840      4836      4839      4841      4836      4839      4842
      4840      4839      4841      4840      4839      4842      4841      4839      4842
      4839      4842      4843      4839      4842      4844      4839      4842      4845
      4843      4842      4844      4843      4842      4845      4844      4842      4845
      4842      4845      4846      4842      4845      4847      4842      4845      4848
      4846      4845      4847      4846      4845      4848      4847      4845      4848
      4845      4848      4849      4845      4848      4850      4845      4848      4851
      4849      4848      4850      4849      4848      4851      4850      4848      4851
      4802      4852      4853      4802      4852      4854      4802      4852      4855
      4853      4852      4854      4853      4852      4855      4854      4852      4855
      4852      4855      4856      4852      4855      4857      4852      4855      4858
      4856      4855      4857      4856      4855      4858      4857      4855      4858
      4855      4858      4859      4855      4858      4860      4855      4858      4861
      4859      4858      4860      4859      4858      4861      4860      4858      4861
      4858      4861      4862      4858      4861      4863      4858      4861      4864
      4862      4861      4863      4862      4861      4864      4863      4861      4864
      4861      4864      4865      4861      4864      4866      4861      4864      4867
      4865      4864      4866      4865      4864      4867      4866      4864      4867
      4864      4867      4868      4864      4867      4869      4864      4867      4870
      4868      4867      4869      4868      4867      4870      4869      4867      4870
      4867      4870      4871      4867      4870      4872      4867      4870      4873
      4871      4870      4872      4871      4870      4873      4872      4870      4873
      4870      4873      4874      4870      4873      4875      4870      4873      4876
      4874      4873      4875      4874      4873      4876      4875      4873      4876
      4873      4876      4877      4873      4876      4878      4873      4876      4879
      4877      4876      4878      4877      4876      4879      4878      4876      4879
      4876      4879      4880      4876      4879      4881      4876      4879      4882
      4880      4879      4881      4880      4879      4882      4881      4879      4882
      4879      4882      4883      4879      4882      4884      4879      4882      4885
      4883      4882      4884      4883      4882      4885      4884      4882      4885
      4882      4885      4886      4882      4885      4887      4882      4885      4888
      4886      4885      4887      4886      4885      4888      4887      4885      4888
      4885      4888      4889      4885      4888      4890      4885      4888      4891
      4889      4888      4890      4889      4888      4891      4890      4888      4891
      4888      4891      4892      4888      4891      4893      4888      4891      4894
      4892      4891      4893      4892      4891      4894      4893      4891      4894
      4896      4895      4897      4896      4895      4898      4896      4895      4899
      4897      4895      4898      4897      4895      4899      4898      4895      4899
      4895      4899      4900      4895      4899      4901      4895      4899      4904
      4900      4899      4901      4900      4899      4904      4901      4899      4904
      4899      4901      4902      4899      4901      4903      4902      4901      4903
      4899      4904      4905      4899      4904      4906      4899      4904      4910
      4905      4904      4906      4905      4904      4910      4906      4904      4910
      4908      4907      4909      4908      4907      4910      4908      4907      4911
      4909      4907      4910      4909      4907      4911      4910      4907      4911
      4904      4910      4907      4907      4911      4912      4911      4912      4913
      4911      4912      4914      4911      4912      4915      4913      4912      4914
      4913      4912      4915      4914      4912      4915      4912      4915      4916
      4912      4915      4917      4912      4915      4923      4916      4915      4917
      4916      4915      4923      4917      4915      4923      4915      4917      4918
      4917      4918      4919      4917      4918      4920      4919      4918      4920
      4918      4920      4921      4918      4920      4922      4918      4920      4932
      4921      4920      4922      4921      4920      4932      4922      4920      4932
      4915      4923      4924      4915      4923      4925      4915      4923      4926
      4924      4923      4925      4924      4923      4926      4925      4923      4926
      4923      4926      4927      4926      4927      4928      4926      4927      4929
      4928      4927      4929      4927      4929      4930      4927      4929      4931
      4927      4929      4979      4930      4929      4931      4930      4929      4979
      4931      4929      4979      4920      4932      4933      4920      4932      4934
      4920      4932      4935      4933      4932      4934      4933      4932      4935
      4934      4932      4935      4932      4935      4936      4932      4935      4937
      4932      4935      4938      4936      4935      4937      4936      4935      4938
      4937      4935      4938      4935      4938      4939      4935      4938      4940
      4935      4938      4941      4939      4938      4940      4939      4938      4941
      4940      4938      4941      4938      4941      4942      4938      4941      4943
      4938      4941      4944      4942      4941      4943      4942      4941      4944
      4943      4941      4944      4941      4944      4945      4941      4944      4946
      4941      4944      4947      4945      4944      4946      4945      4944      4947
      4946      4944      4947      4944      4947      4948      4944      4947      4949
      4944      4947      4950      4948      4947      4949      4948      4947      4950
      4949      4947      4950      4947      4950      4951      4947      4950      4952
      4951      4950      4952      4950      4952      4953      4950      4952      4954
      4953      4952      4954      4952      4954      4955      4952      4954      4956
      4952      4954      4957      4955      4954      4956      4955      4954      4957
      4956      4954      4957      4954      4957      4958      4954      4957      4959
      4954      4957      4960      4958      4957      4959      4958      4957      4960
      4959      4957      4960      4957      4960      4961      4957      4960      4962
      4957      4960      4963      4961      4960      4962      4961      4960      4963
      4962      4960      4963      4960      4963      4964      4960      4963      4965
      4960      4963      4966      4964      4963      4965      4964      4963      4966
      4965      4963      4966      4963      4966      4967      4963      4966      4968
      4963      4966      4969      4967      4966      4968      4967      4966      4969
      4968      4966      4969      4966      4969      4970      4966      4969      4971
      4966      4969      4972      4970      4969      4971      4970      4969      4972
      4971      4969      4972      4969      4972      4973      4969      4972      4974
      4969      4972      4975      4973      4972      4974      4973      4972      4975
      4974      4972      4975      4972      4975      4976      4972      4975      4977
      4972      4975      4978      4976      4975      4977      4976      4975      4978
      4977      4975      4978      4929      4979      4980      4929      4979      4981
      4929      4979      4982      4980      4979      4981      4980      4979      4982
      4981      4979      4982      4979      4982      4983      4979      4982      4984
      4979      4982      4985      4983      4982      4984      4983      4982      4985
      4984      4982      4985      4982      4985      4986      4982      4985      4987
      4982      4985      4988      4986      4985      4987      4986      4985      4988
      4987      4985      4988      4985      4988      4989      4985      4988      4990
      4985      4988      4991      4989      4988      4990      4989      4988      4991
      4990      4988      4991      4988      4991      4992      4988      4991      4993
      4988      4991      4994      4992      4991      4993      4992      4991      4994
      4993      4991      4994      4991      4994      4995      4991      4994      4996
      4991      4994      4997      4995      4994      4996      4995      4994      4997
      4996      4994      4997      4994      4997      4998      4994      4997      4999
      4994      4997      5000      4998      4997      4999      4998      4997      5000
      4999      4997      5000      4997      5000      5001      4997      5000      5002
      4997      5000      5003      5001      5000      5002      5001      5000      5003
      5002      5000      5003      5000      5003      5004      5000      5003      5005
      5000      5003      5006      5004      5003      5005      5004      5003      5006
      5005      5003      5006      5003      5006      5007      5003      5006      5008
      5003      5006      5009      5007      5006      5008      5007      5006      5009
      5008      5006      5009      5006      5009      5010      5006      5009      5011
      5006      5009      5012      5010      5009      5011      5010      5009      5012
      5011      5009      5012      5009      5012      5013      5009      5012      5014
      5009      5012      5015      5013      5012      5014      5013      5012      5015
      5014      5012      5015      5012      5015      5016      5012      5015      5017
      5012      5015      5018      5016      5015      5017      5016      5015      5018
      5017      5015      5018      5015      5018      5019      5015      5018      5020
      5015      5018      5021      5019      5018      5020      5019      5018      5021
      5020      5018      5021      5023      5022      5026      5023      5022      5030
      5023      5022      5034      5026      5022      5030      5026      5022      5034
      5030      5022      5034      5022      5023      5024      5022      5023      5025
      5022      5023      5038      5024      5023      5025      5024      5023      5038
      5025      5023      5038      5022      5026      5027      5022      5026      5028
      5022      5026      5029      5027      5026      5028      5027      5026      5029
      5028      5026      5029      5022      5030      5031      5022      5030      5032
      5022      5030      5033      5031      5030      5032      5031      5030      5033
      5032      5030      5033      5022      5034      5035      5022      5034      5036
      5022      5034      5037      5035      5034      5036      5035      5034      5037
      5036      5034      5037      5023      5038      5039      5023      5038      5040
      5023      5038      5044      5039      5038      5040      5039      5038      5044
      5040      5038      5044      5042      5041      5043      5042      5041      5044
      5042      5041      5045      5043      5041      5044      5043      5041      5045
      5044      5041      5045      5038      5044      5041      5041      5045      5046
      5045      5046      5047      5045      5046      5048      5045      5046      5049
      5047      5046      5048      5047      5046      5049      5048      5046      5049
      5046      5049      5050      5046      5049      5051      5046      5049      5057
      5050      5049      5051      5050      5049      5057      5051      5049      5057
      5049      5051      5052      5051      5052      5053      5051      5052      5054
      5053      5052      5054      5052      5054      5055      5052      5054      5056
      5052      5054      5066      5055      5054      5056      5055      5054      5066
      5056      5054      5066      5049      5057      5058      5049      5057      5059
      5049      5057      5060      5058      5057      5059      5058      5057      5060
      5059      5057      5060      5057      5060      5061      5060      5061      5062
      5060      5061      5063      5062      5061      5063      5061      5063      5064
      5061      5063      5065      5061      5063      5113      5064      5063      5065
      5064      5063      5113      5065      5063      5113      5054      5066      5067
      5054      5066      5068      5054      5066      5069      5067      5066      5068
      5067      5066      5069      5068      5066      5069      5066      5069      5070
      5066      5069      5071      5066      5069      5072      5070      5069      5071
      5070      5069      5072      5071      5069      5072      5069      5072      5073
      5069      5072      5074      5069      5072      5075      5073      5072      5074
      5073      5072      5075      5074      5072      5075      5072      5075      5076
      5072      5075      5077      5072      5075      5078      5076      5075      5077
      5076      5075      5078      5077      5075      5078      5075      5078      5079
      5075      5078      5080      5075      5078      5081      5079      5078      5080
      5079      5078      5081      5080      5078      5081      5078      5081      5082
      5078      5081      5083      5078      5081      5084      5082      5081      5083
      5082      5081      5084      5083      5081      5084      5081      5084      5085
      5081      5084      5086      5085      5084      5086      5084      5086      5087
      5084      5086      5088      5087      5086      5088      5086      5088      5089
      5086      5088      5090      5086      5088      5091      5089      5088      5090
      5089      5088      5091      5090      5088      5091      5088      5091      5092
      5088      5091      5093      5088      5091      5094      5092      5091      5093
      5092      5091      5094      5093      5091      5094      5091      5094      5095
      5091      5094      5096      5091      5094      5097      5095      5094      5096
      5095      5094      5097      5096      5094      5097      5094      5097      5098
      5094      5097      5099      5094      5097      5100      5098      5097      5099
      5098      5097      5100      5099      5097      5100      5097      5100      5101
      5097      5100      5102      5097      5100      5103      5101      5100      5102
      5101      5100      5103      5102      5100      5103      5100      5103      5104
      5100      5103      5105      5100      5103      5106      5104      5103      5105
      5104      5103      5106      5105      5103      5106      5103      5106      5107
      5103      5106      5108      5103      5106      5109      5107      5106      5108
      5107      5106      5109      5108      5106      5109      5106      5109      5110
      5106      5109      5111      5106      5109      5112      5110      5109      5111
      5110      5109      5112      5111      5109      5112      5063      5113      5114
      5063      5113      5115      5063      5113      5116      5114      5113      5115
      5114      5113      5116      5115      5113      5116      5113      5116      5117
      5113      5116      5118      5113      5116      5119      5117      5116      5118
      5117      5116      5119      5118      5116      5119      5116      5119      5120
      5116      5119      5121      5116      5119      5122      5120      5119      5121
      5120      5119      5122      5121      5119      5122      5119      5122      5123
      5119      5122      5124      5119      5122      5125      5123      5122      5124
      5123      5122      5125      5124      5122      5125      5122      5125      5126
      5122      5125      5127      5122      5125      5128      5126      5125      5127
      5126      5125      5128      5127      5125      5128      5125      5128      5129
      5125      5128      5130      5125      5128      5131      5129      5128      5130
      5129      5128      5131      5130      5128      5131      5128      5131      5132
      5128      5131      5133      5128      5131      5134      5132      5131      5133
      5132      5131      5134      5133      5131      5134      5131      5134      5135
      5131      5134      5136      5131      5134      5137      5135      5134      5136
      5135      5134      5137      5136      5134      5137      5134      5137      5138
      5134      5137      5139      5134      5137      5140      5138      5137      5139
      5138      5137      5140      5139      5137      5140      5137      5140      5141
      5137      5140      5142      5137      5140      5143      5141      5140      5142
      5141      5140      5143      5142      5140      5143      5140      5143      5144
      5140      5143      5145      5140      5143      5146      5144      5143      5145
      5144      5143      5146      5145      5143      5146      5143      5146      5147
      5143      5146      5148      5143      5146      5149      5147      5146      5148
      5147      5146      5149      5148      5146      5149      5146      5149      5150
      5146      5149      5151      5146      5149      5152      5150      5149      5151
      5150      5149      5152      5151      5149      5152      5149      5152      5153
      5149      5152      5154      5149      5152      5155      5153      5152      5154
      5153      5152      5155      5154      5152      5155      5157      5156      5160
      5157      5156      5164      5157      5156      5168      5160      5156      5164
      5160      5156      5168      5164      5156      5168      5156      5157      5158
      5156      5157      5159      5156      5157      5172      5158      5157      5159
      5158      5157      5172      5159      5157      5172      5156      5160      5161
      5156      5160      5162      5156      5160      5163      5161      5160      5162
      5161      5160      5163      5162      5160      5163      5156      5164      5165
      5156      5164      5166      5156      5164      5167      5165      5164      5166
      5165      5164      5167      5166      5164      5167      5156      5168      5169
      5156      5168      5170      5156      5168      5171      5169      5168      5170
      5169      5168      5171      5170      5168      5171      5157      5172      5173
      5157      5172      5174      5157      5172      5178      5173      5172      5174
      5173      5172      5178      5174      5172      5178      5176      5175      5177
      5176      5175      5178      5176      5175      5179      5177      5175      5178
      5177      5175      5179      5178      5175      5179      5172      5178      5175
      5175      5179      5180      5179      5180      5181      5179      5180      5182
      5179      5180      5183      5181      5180      5182      5181      5180      5183
      5182      5180      5183      5180      5183      5184      5180      5183      5185
      5180      5183      5191      5184      5183      5185      5184      5183      5191
      5185      5183      5191      5183      5185      5186      5185      5186      5187
      5185      5186      5188      5187      5186      5188      5186      5188      5189
      5186      5188      5190      5186      5188      5200      5189      5188      5190
      5189      5188      5200      5190      5188      5200      5183      5191      5192
      5183      5191      5193      5183      5191      5194      5192      5191      5193
      5192      5191      5194      5193      5191      5194      5191      5194      5195
      5194      5195      5196      5194      5195      5197      5196      5195      5197
      5195      5197      5198      5195      5197      5199      5195      5197      5247
      5198      5197      5199      5198      5197      5247      5199      5197      5247
      5188      5200      5201      5188      5200      5202      5188      5200      5203
      5201      5200      5202      5201      5200      5203      5202      5200      5203
      5200      5203      5204      5200      5203      5205      5200      5203      5206
      5204      5203      5205      5204      5203      5206      5205      5203      5206
      5203      5206      5207      5203      5206      5208      5203      5206      5209
      5207      5206      5208      5207      5206      5209      5208      5206      5209
      5206      5209      5210      5206      5209      5211      5206      5209      5212
      5210      5209      5211      5210      5209      5212      5211      5209      5212
      5209      5212      5213      5209      5212      5214      5209      5212      5215
      5213      5212      5214      5213      5212      5215      5214      5212      5215
      5212      5215      5216      5212      5215      5217      5212      5215      5218
      5216      5215      5217      5216      5215      5218      5217      5215      5218
      5215      5218      5219      5215      5218      5220      5219      5218      5220
      5218      5220      5221      5218      5220      5222      5221      5220      5222
      5220      5222      5223      5220      5222      5224      5220      5222      5225
      5223      5222      5224      5223      5222      5225      5224      5222      5225
      5222      5225      5226      5222      5225      5227      5222      5225      5228
      5226      5225      5227      5226      5225      5228      5227      5225      5228
      5225      5228      5229      5225      5228      5230      5225      5228      5231
      5229      5228      5230      5229      5228      5231      5230      5228      5231
      5228      5231      5232      5228      5231      5233      5228      5231      5234
      5232      5231      5233      5232      5231      5234      5233      5231      5234
      5231      5234      5235      5231      5234      5236      5231      5234      5237
      5235      5234      5236      5235      5234      5237      5236      5234      5237
      5234      5237      5238      5234      5237      5239      5234      5237      5240
      5238      5237      5239      5238      5237      5240      5239      5237      5240
      5237      5240      5241      5237      5240      5242      5237      5240      5243
      5241      5240      5242      5241      5240      5243      5242      5240      5243
      5240      5243      5244      5240      5243      5245      5240      5243      5246
      5244      5243      5245      5244      5243      5246      5245      5243      5246
      5197      5247      5248      5197      5247      5249      5197      5247      5250
      5248      5247      5249      5248      5247      5250      5249      5247      5250
      5247      5250      5251      5247      5250      5252      5247      5250      5253
      5251      5250      5252      5251      5250      5253      5252      5250      5253
      5250      5253      5254      5250      5253      5255      5250      5253      5256
      5254      5253      5255      5254      5253      5256      5255      5253      5256
      5253      5256      5257      5253      5256      5258      5253      5256      5259
      5257      5256      5258      5257      5256      5259      5258      5256      5259
      5256      5259      5260      5256      5259      5261      5256      5259      5262
      5260      5259      5261      5260      5259      5262      5261      5259      5262
      5259      5262      5263      5259      5262      5264      5259      5262      5265
      5263      5262      5264      5263      5262      5265      5264      5262      5265
      5262      5265      5266      5262      5265      5267      5262      5265      5268
      5266      5265      5267      5266      5265      5268      5267      5265      5268
      5265      5268      5269      5265      5268      5270      5265      5268      5271
      5269      5268      5270      5269      5268      5271      5270      5268      5271
      5268      5271      5272      5268      5271      5273      5268      5271      5274
      5272      5271      5273      5272      5271      5274      5273      5271      5274
      5271      5274      5275      5271      5274      5276      5271      5274      5277
      5275      5274      5276      5275      5274      5277      5276      5274      5277
      5274      5277      5278      5274      5277      5279      5274      5277      5280
      5278      5277      5279      5278      5277      5280      5279      5277      5280
      5277      5280      5281      5277      5280      5282      5277      5280      5283
      5281      5280      5282      5281      5280      5283      5282      5280      5283
      5280      5283      5284      5280      5283      5285      5280      5283      5286
      5284      5283      5285      5284      5283      5286      5285      5283      5286
      5283      5286      5287      5283      5286      5288      5283      5286      5289
      5287      5286      5288      5287      5286      5289      5288      5286      5289
      5291      5290      5294      5291      5290      5298      5291      5290      5302
      5294      5290      5298      5294      5290      5302      5298      5290      5302
      5290      5291      5292      5290      5291      5293      5290      5291      5306
      5292      5291      5293      5292      5291      5306      5293      5291      5306
      5290      5294      5295      5290      5294      5296      5290      5294      5297
      5295      5294      5296      5295      5294      5297      5296      5294      5297
      5290      5298      5299      5290      5298      5300      5290      5298      5301
      5299      5298      5300      5299      5298      5301      5300      5298      5301
      5290      5302      5303      5290      5302      5304      5290      5302      5305
      5303      5302      5304      5303      5302      5305      5304      5302      5305
      5291      5306      5307      5291      5306      5308      5291      5306      5312
      5307      5306      5308      5307      5306      5312      5308      5306      5312
      5310      5309      5311      5310      5309      5312      5310      5309      5313
      5311      5309      5312      5311      5309      5313      5312      5309      5313
      5306      5312      5309      5309      5313      5314      5313      5314      5315
      5313      5314      5316      5313      5314      5317      5315      5314      5316
      5315      5314      5317      5316      5314      5317      5314      5317      5318
      5314      5317      5319      5314      5317      5325      5318      5317      5319
      5318      5317      5325      5319      5317      5325      5317      5319      5320
      5319      5320      5321      5319      5320      5322      5321      5320      5322
      5320      5322      5323      5320      5322      5324      5320      5322      5334
      5323      5322      5324      5323      5322      5334      5324      5322      5334
      5317      5325      5326      5317      5325      5327      5317      5325      5328
      5326      5325      5327      5326      5325      5328      5327      5325      5328
      5325      5328      5329      5328      5329      5330      5328      5329      5331
      5330      5329      5331      5329      5331      5332      5329      5331      5333
      5329      5331      5381      5332      5331      5333      5332      5331      5381
      5333      5331      5381      5322      5334      5335      5322      5334      5336
      5322      5334      5337      5335      5334      5336      5335      5334      5337
      5336      5334      5337      5334      5337      5338      5334      5337      5339
      5334      5337      5340      5338      5337      5339      5338      5337      5340
      5339      5337      5340      5337      5340      5341      5337      5340      5342
      5337      5340      5343      5341      5340      5342      5341      5340      5343
      5342      5340      5343      5340      5343      5344      5340      5343      5345
      5340      5343      5346      5344      5343      5345      5344      5343      5346
      5345      5343      5346      5343      5346      5347      5343      5346      5348
      5343      5346      5349      5347      5346      5348      5347      5346      5349
      5348      5346      5349      5346      5349      5350      5346      5349      5351
      5346      5349      5352      5350      5349      5351      5350      5349      5352
      5351      5349      5352      5349      5352      5353      5349      5352      5354
      5353      5352      5354      5352      5354      5355      5352      5354      5356
      5355      5354      5356      5354      5356      5357      5354      5356      5358
      5354      5356      5359      5357      5356      5358      5357      5356      5359
      5358      5356      5359      5356      5359      5360      5356      5359      5361
      5356      5359      5362      5360      5359      5361      5360      5359      5362
      5361      5359      5362      5359      5362      5363      5359      5362      5364
      5359      5362      5365      5363      5362      5364      5363      5362      5365
      5364      5362      5365      5362      5365      5366      5362      5365      5367
      5362      5365      5368      5366      5365      5367      5366      5365      5368
      5367      5365      5368      5365      5368      5369      5365      5368      5370
      5365      5368      5371      5369      5368      5370      5369      5368      5371
      5370      5368      5371      5368      5371      5372      5368      5371      5373
      5368      5371      5374      5372      5371      5373      5372      5371      5374
      5373      5371      5374      5371      5374      5375      5371      5374      5376
      5371      5374      5377      5375      5374      5376      5375      5374      5377
      5376      5374      5377      5374      5377      5378      5374      5377      5379
      5374      5377      5380      5378      5377      5379      5378      5377      5380
      5379      5377      5380      5331      5381      5382      5331      5381      5383
      5331      5381      5384      5382      5381      5383      5382      5381      5384
      5383      5381      5384      5381      5384      5385      5381      5384      5386
      5381      5384      5387      5385      5384      5386      5385      5384      5387
      5386      5384      5387      5384      5387      5388      5384      5387      5389
      5384      5387      5390      5388      5387      5389      5388      5387      5390
      5389      5387      5390      5387      5390      5391      5387      5390      5392
      5387      5390      5393      5391      5390      5392      5391      5390      5393
      5392      5390      5393      5390      5393      5394      5390      5393      5395
      5390      5393      5396      5394      5393      5395      5394      5393      5396
      5395      5393      5396      5393      5396      5397      5393      5396      5398
      5393      5396      5399      5397      5396      5398      5397      5396      5399
      5398      5396      5399      5396      5399      5400      5396      5399      5401
      5396      5399      5402      5400      5399      5401      5400      5399      5402
      5401      5399      5402      5399      5402      5403      5399      5402      5404
      5399      5402      5405      5403      5402      5404      5403      5402      5405
      5404      5402      5405      5402      5405      5406      5402      5405      5407
      5402      5405      5408      5406      5405      5407      5406      5405      5408
      5407      5405      5408      5405      5408      5409      5405      5408      5410
      5405      5408      5411      5409      5408      5410      5409      5408      5411
      5410      5408      5411      5408      5411      5412      5408      5411      5413
      5408      5411      5414      5412      5411      5413      5412      5411      5414
      5413      5411      5414      5411      5414      5415      5411      5414      5416
      5411      5414      5417      5415      5414      5416      5415      5414      5417
      5416      5414      5417      5414      5417      5418      5414      5417      5419
      5414      5417      5420      5418      5417      5419      5418      5417      5420
      5419      5417      5420      5417      5420      5421      5417      5420      5422
      5417      5420      5423      5421      5420      5422      5421      5420      5423
      5422      5420      5423      5425      5424      5428      5425      5424      5432
      5425      5424      5436      5428      5424      5432      5428      5424      5436
      5432      5424      5436      5424      5425      5426      5424      5425      5427
      5424      5425      5440      5426      5425      5427      5426      5425      5440
      5427      5425      5440      5424      5428      5429      5424      5428      5430
      5424      5428      5431      5429      5428      5430      5429      5428      5431
      5430      5428      5431      5424      5432      5433      5424      5432      5434
      5424      5432      5435      5433      5432      5434      5433      5432      5435
      5434      5432      5435      5424      5436      5437      5424      5436      5438
      5424      5436      5439      5437      5436      5438      5437      5436      5439
      5438      5436      5439      5425      5440      5441      5425      5440      5442
      5425      5440      5446      5441      5440      5442      5441      5440      5446
      5442      5440      5446      5444      5443      5445      5444      5443      5446
      5444      5443      5447      5445      5443      5446      5445      5443      5447
      5446      5443      5447      5440      5446      5443      5443      5447      5448
      5447      5448      5449      5447      5448      5450      5447      5448      5451
      5449      5448      5450      5449      5448      5451      5450      5448      5451
      5448      5451      5452      5448      5451      5453      5448      5451      5459
      5452      5451      5453      5452      5451      5459      5453      5451      5459
      5451      5453      5454      5453      5454      5455      5453      5454      5456
      5455      5454      5456      5454      5456      5457      5454      5456      5458
      5454      5456      5468      5457      5456      5458      5457      5456      5468
      5458      5456      5468      5451      5459      5460      5451      5459      5461
      5451      5459      5462      5460      5459      5461      5460      5459      5462
      5461      5459      5462      5459      5462      5463      5462      5463      5464
      5462      5463      5465      5464      5463      5465      5463      5465      5466
      5463      5465      5467      5463      5465      5515      5466      5465      5467
      5466      5465      5515      5467      5465      5515      5456      5468      5469
      5456      5468      5470      5456      5468      5471      5469      5468      5470
      5469      5468      5471      5470      5468      5471      5468      5471      5472
      5468      5471      5473      5468      5471      5474      5472      5471      5473
      5472      5471      5474      5473      5471      5474      5471      5474      5475
      5471      5474      5476      5471      5474      5477      5475      5474      5476
      5475      5474      5477      5476      5474      5477      5474      5477      5478
      5474      5477      5479      5474      5477      5480      5478      5477      5479
      5478      5477      5480      5479      5477      5480      5477      5480      5481
      5477      5480      5482      5477      5480      5483      5481      5480      5482
      5481      5480      5483      5482      5480      5483      5480      5483      5484
      5480      5483      5485      5480      5483      5486      5484      5483      5485
      5484      5483      5486      5485      5483      5486      5483      5486      5487
      5483      5486      5488      5487      5486      5488      5486      5488      5489
      5486      5488      5490      5489      5488      5490      5488      5490      5491
      5488      5490      5492      5488      5490      5493      5491      5490      5492
      5491      5490      5493      5492      5490      5493      5490      5493      5494
      5490      5493      5495      5490      5493      5496      5494      5493      5495
      5494      5493      5496      5495      5493      5496      5493      5496      5497
      5493      5496      5498      5493      5496      5499      5497      5496      5498
      5497      5496      5499      5498      5496      5499      5496      5499      5500
      5496      5499      5501      5496      5499      5502      5500      5499      5501
      5500      5499      5502      5501      5499      5502      5499      5502      5503
      5499      5502      5504      5499      5502      5505      5503      5502      5504
      5503      5502      5505      5504      5502      5505      5502      5505      5506
      5502      5505      5507      5502      5505      5508      5506      5505      5507
      5506      5505      5508      5507      5505      5508      5505      5508      5509
      5505      5508      5510      5505      5508      5511      5509      5508      5510
      5509      5508      5511      5510      5508      5511      5508      5511      5512
      5508      5511      5513      5508      5511      5514      5512      5511      5513
      5512      5511      5514      5513      5511      5514      5465      5515      5516
      5465      5515      5517      5465      5515      5518      5516      5515      5517
      5516      5515      5518      5517      5515      5518      5515      5518      5519
      5515      5518      5520      5515      5518      5521      5519      5518      5520
      5519      5518      5521      5520      5518      5521      5518      5521      5522
      5518      5521      5523      5518      5521      5524      5522      5521      5523
      5522      5521      5524      5523      5521      5524      5521      5524      5525
      5521      5524      5526      5521      5524      5527      5525      5524      5526
      5525      5524      5527      5526      5524      5527      5524      5527      5528
      5524      5527      5529      5524      5527      5530      5528      5527      5529
      5528      5527      5530      5529      5527      5530      5527      5530      5531
      5527      5530      5532      5527      5530      5533      5531      5530      5532
      5531      5530      5533      5532      5530      5533      5530      5533      5534
      5530      5533      5535      5530      5533      5536      5534      5533      5535
      5534      5533      5536      5535      5533      5536      5533      5536      5537
      5533      5536      5538      5533      5536      5539      5537      5536      5538
      5537      5536      5539      5538      5536      5539      5536      5539      5540
      5536      5539      5541      5536      5539      5542      5540      5539      5541
      5540      5539      5542      5541      5539      5542      5539      5542      5543
      5539      5542      5544      5539      5542      5545      5543      5542      5544
      5543      5542      5545      5544      5542      5545      5542      5545      5546
      5542      5545      5547      5542      5545      5548      5546      5545      5547
      5546      5545      5548      5547      5545      5548      5545      5548      5549
      5545      5548      5550      5545      5548      5551      5549      5548      5550
      5549      5548      5551      5550      5548      5551      5548      5551      5552
      5548      5551      5553      5548      5551      5554      5552      5551      5553
      5552      5551      5554      5553      5551      5554      5551      5554      5555
      5551      5554      5556      5551      5554      5557      5555      5554      5556
      5555      5554      5557      5556      5554      5557      5559      5558      5562
      5559      5558      5566      5559      5558      5570      5562      5558      5566
      5562      5558      5570      5566      5558      5570      5558      5559      5560
      5558      5559      5561      5558      5559      5574      5560      5559      5561
      5560      5559      5574      5561      5559      5574      5558      5562      5563
      5558      5562      5564      5558      5562      5565      5563      5562      5564
      5563      5562      5565      5564      5562      5565      5558      5566      5567
      5558      5566      5568      5558      5566      5569      5567      5566      5568
      5567      5566      5569      5568      5566      5569      5558      5570      5571
      5558      5570      5572      5558      5570      5573      5571      5570      5572
      5571      5570      5573      5572      5570      5573      5559      5574      5575
      5559      5574      5576      5559      5574      5580      5575      5574      5576
      5575      5574      5580      5576      5574      5580      5578      5577      5579
      5578      5577      5580      5578      5577      5581      5579      5577      5580
      5579      5577      5581      5580      5577      5581      5574      5580      5577
      5577      5581      5582      5581      5582      5583      5581      5582      5584
      5581      5582      5585      5583      5582      5584      5583      5582      5585
      5584      5582      5585      5582      5585      5586      5582      5585      5587
      5582      5585      5593      5586      5585      5587      5586      5585      5593
      5587      5585      5593      5585      5587      5588      5587      5588      5589
      5587      5588      5590      5589      5588      5590      5588      5590      5591
      5588      5590      5592      5588      5590      5602      5591      5590      5592
      5591      5590      5602      5592      5590      5602      5585      5593      5594
      5585      5593      5595      5585      5593      5596      5594      5593      5595
      5594      5593      5596      5595      5593      5596      5593      5596      5597
      5596      5597      5598      5596      5597      5599      5598      5597      5599
      5597      5599      5600      5597      5599      5601      5597      5599      5649
      5600      5599      5601      5600      5599      5649      5601      5599      5649
      5590      5602      5603      5590      5602      5604      5590      5602      5605
      5603      5602      5604      5603      5602      5605      5604      5602      5605
      5602      5605      5606      5602      5605      5607      5602      5605      5608
      5606      5605      5607      5606      5605      5608      5607      5605      5608
      5605      5608      5609      5605      5608      5610      5605      5608      5611
      5609      5608      5610      5609      5608      5611      5610      5608      5611
      5608      5611      5612      5608      5611      5613      5608      5611      5614
      5612      5611      5613      5612      5611      5614      5613      5611      5614
      5611      5614      5615      5611      5614      5616      5611      5614      5617
      5615      5614      5616      5615      5614      5617      5616      5614      5617
      5614      5617      5618      5614      5617      5619      5614      5617      5620
      5618      5617      5619      5618      5617      5620      5619      5617      5620
      5617      5620      5621      5617      5620      5622      5621      5620      5622
      5620      5622      5623      5620      5622      5624      5623      5622      5624
      5622      5624      5625      5622      5624      5626      5622      5624      5627
      5625      5624      5626      5625      5624      5627      5626      5624      5627
      5624      5627      5628      5624      5627      5629      5624      5627      5630
      5628      5627      5629      5628      5627      5630      5629      5627      5630
      5627      5630      5631      5627      5630      5632      5627      5630      5633
      5631      5630      5632      5631      5630      5633      5632      5630      5633
      5630      5633      5634      5630      5633      5635      5630      5633      5636
      5634      5633      5635      5634      5633      5636      5635      5633      5636
      5633      5636      5637      5633      5636      5638      5633      5636      5639
      5637      5636      5638      5637      5636      5639      5638      5636      5639
      5636      5639      5640      5636      5639      5641      5636      5639      5642
      5640      5639      5641      5640      5639      5642      5641      5639      5642
      5639      5642      5643      5639      5642      5644      5639      5642      5645
      5643      5642      5644      5643      5642      5645      5644      5642      5645
      5642      5645      5646      5642      5645      5647      5642      5645      5648
      5646      5645      5647      5646      5645      5648      5647      5645      5648
      5599      5649      5650      5599      5649      5651      5599      5649      5652
      5650      5649      5651      5650      5649      5652      5651      5649      5652
      5649      5652      5653      5649      5652      5654      5649      5652      5655
      5653      5652      5654      5653      5652      5655      5654      5652      5655
      5652      5655      5656      5652      5655      5657      5652      5655      5658
      5656      5655      5657      5656      5655      5658      5657      5655      5658
      5655      5658      5659      5655      5658      5660      5655      5658      5661
      5659      5658      5660      5659      5658      5661      5660      5658      5661
      5658      5661      5662      5658      5661      5663      5658      5661      5664
      5662      5661      5663      5662      5661      5664      5663      5661      5664
      5661      5664      5665      5661      5664      5666      5661      5664      5667
      5665      5664      5666      5665      5664      5667      5666      5664      5667
      5664      5667      5668      5664      5667      5669      5664      5667      5670
      5668      5667      5669      5668      5667      5670      5669      5667      5670
      5667      5670      5671      5667      5670      5672      5667      5670      5673
      5671      5670      5672      5671      5670      5673      5672      5670      5673
      5670      5673      5674      5670      5673      5675      5670      5673      5676
      5674      5673      5675      5674      5673      5676      5675      5673      5676
      5673      5676      5677      5673      5676      5678      5673      5676      5679
      5677      5676      5678      5677      5676      5679      5678      5676      5679
      5676      5679      5680      5676      5679      5681      5676      5679      5682
      5680      5679      5681      5680      5679      5682      5681      5679      5682
      5679      5682      5683      5679      5682      5684      5679      5682      5685
      5683      5682      5684      5683      5682      5685      5684      5682      5685
      5682      5685      5686      5682      5685      5687      5682      5685      5688
      5686      5685      5687      5686      5685      5688      5687      5685      5688
      5685      5688      5689      5685      5688      5690      5685      5688      5691
      5689      5688      5690      5689      5688      5691      5690      5688      5691
      5693      5692      5696      5693      5692      5700      5693      5692      5704
      5696      5692      5700      5696      5692      5704      5700      5692      5704
      5692      5693      5694      5692      5693      5695      5692      5693      5708
      5694      5693      5695      5694      5693      5708      5695      5693      5708
      5692      5696      5697      5692      5696      5698      5692      5696      5699
      5697      5696      5698      5697      5696      5699      5698      5696      5699
      5692      5700      5701      5692      5700      5702      5692      5700      5703
      5701      5700      5702      5701      5700      5703      5702      5700      5703
      5692      5704      5705      5692      5704      5706      5692      5704      5707
      5705      5704      5706      5705      5704      5707      5706      5704      5707
      5693      5708      5709      5693      5708      5710      5693      5708      5714
      5709      5708      5710      5709      5708      5714      5710      5708      5714
      5712      5711      5713      5712      5711      5714      5712      5711      5715
      5713      5711      5714      5713      5711      5715      5714      5711      5715
      5708      5714      5711      5711      5715      5716      5715      5716      5717
      5715      5716      5718      5715      5716      5719      5717      5716      5718
      5717      5716      5719      5718      5716      5719      5716      5719      5720
      5716      5719      5721      5716      5719      5727      5720      5719      5721
      5720      5719      5727      5721      5719      5727      5719      5721      5722
      5721      5722      5723      5721      5722      5724      5723      5722      5724
      5722      5724      5725      5722      5724      5726      5722      5724      5736
      5725      5724      5726      5725      5724      5736      5726      5724      5736
      5719      5727      5728      5719      5727      5729      5719      5727      5730
      5728      5727      5729      5728      5727      5730      5729      5727      5730
      5727      5730      5731      5730      5731      5732      5730      5731      5733
      5732      5731      5733      5731      5733      5734      5731      5733      5735
      5731      5733      5783      5734      5733      5735      5734      5733      5783
      5735      5733      5783      5724      5736      5737      5724      5736      5738
      5724      5736      5739      5737      5736      5738      5737      5736      5739
      5738      5736      5739      5736      5739      5740      5736      5739      5741
      5736      5739      5742      5740      5739      5741      5740      5739      5742
      5741      5739      5742      5739      5742      5743      5739      5742      5744
      5739      5742      5745      5743      5742      5744      5743      5742      5745
      5744      5742      5745      5742      5745      5746      5742      5745      5747
      5742      5745      5748      5746      5745      5747      5746      5745      5748
      5747      5745      5748      5745      5748      5749      5745      5748      5750
      5745      5748      5751      5749      5748      5750      5749      5748      5751
      5750      5748      5751      5748      5751      5752      5748      5751      5753
      5748      5751      5754      5752      5751      5753      5752      5751      5754
      5753      5751      5754      5751      5754      5755      5751      5754      5756
      5755      5754      5756      5754      5756      5757      5754      5756      5758
      5757      5756      5758      5756      5758      5759      5756      5758      5760
      5756      5758      5761      5759      5758      5760      5759      5758      5761
      5760      5758      5761      5758      5761      5762      5758      5761      5763
      5758      5761      5764      5762      5761      5763      5762      5761      5764
      5763      5761      5764      5761      5764      5765      5761      5764      5766
      5761      5764      5767      5765      5764      5766      5765      5764      5767
      5766      5764      5767      5764      5767      5768      5764      5767      5769
      5764      5767      5770      5768      5767      5769      5768      5767      5770
      5769      5767      5770      5767      5770      5771      5767      5770      5772
      5767      5770      5773      5771      5770      5772      5771      5770      5773
      5772      5770      5773      5770      5773      5774      5770      5773      5775
      5770      5773      5776      5774      5773      5775      5774      5773      5776
      5775      5773      5776      5773      5776      5777      5773      5776      5778
      5773      5776      5779      5777      5776      5778      5777      5776      5779
      5778      5776      5779      5776      5779      5780      5776      5779      5781
      5776      5779      5782      5780      5779      5781      5780      5779      5782
      5781      5779      5782      5733      5783      5784      5733      5783      5785
      5733      5783      5786      5784      5783      5785      5784      5783      5786
      5785      5783      5786      5783      5786      5787      5783      5786      5788
      5783      5786      5789      5787      5786      5788      5787      5786      5789
      5788      5786      5789      5786      5789      5790      5786      5789      5791
      5786      5789      5792      5790      5789      5791      5790      5789      5792
      5791      5789      5792      5789      5792      5793      5789      5792      5794
      5789      5792      5795      5793      5792      5794      5793      5792      5795
      5794      5792      5795      5792      5795      5796      5792      5795      5797
      5792      5795      5798      5796      5795      5797      5796      5795      5798
      5797      5795      5798      5795      5798      5799      5795      5798      5800
      5795      5798      5801      5799      5798      5800      5799      5798      5801
      5800      5798      5801      5798      5801      5802      5798      5801      5803
      5798      5801      5804      5802      5801      5803      5802      5801      5804
      5803      5801      5804      5801      5804      5805      5801      5804      5806
      5801      5804      5807      5805      5804      5806      5805      5804      5807
      5806      5804      5807      5804      5807      5808      5804      5807      5809
      5804      5807      5810      5808      5807      5809      5808      5807      5810
      5809      5807      5810      5807      5810      5811      5807      5810      5812
      5807      5810      5813      5811      5810      5812      5811      5810      5813
      5812      5810      5813      5810      5813      5814      5810      5813      5815
      5810      5813      5816      5814      5813      5815      5814      5813      5816
      5815      5813      5816      5813      5816      5817      5813      5816      5818
      5813      5816      5819      5817      5816      5818      5817      5816      5819
      5818      5816      5819      5816      5819      5820      5816      5819      5821
      5816      5819      5822      5820      5819      5821      5820      5819      5822
      5821      5819      5822      5819      5822      5823      5819      5822      5824
      5819      5822      5825      5823      5822      5824      5823      5822      5825
      5824      5822      5825      5827      5826      5830      5827      5826      5834
      5827      5826      5838      5830      5826      5834      5830      5826      5838
      5834      5826      5838      5826      5827      5828      5826      5827      5829
      5826      5827      5842      5828      5827      5829      5828      5827      5842
      5829      5827      5842      5826      5830      5831      5826      5830      5832
      5826      5830      5833      5831      5830      5832      5831      5830      5833
      5832      5830      5833      5826      5834      5835      5826      5834      5836
      5826      5834      5837      5835      5834      5836      5835      5834      5837
      5836      5834      5837      5826      5838      5839      5826      5838      5840
      5826      5838      5841      5839      5838      5840      5839      5838      5841
      5840      5838      5841      5827      5842      5843      5827      5842      5844
      5827      5842      5848      5843      5842      5844      5843      5842      5848
      5844      5842      5848      5846      5845      5847      5846      5845      5848
      5846      5845      5849      5847      5845      5848      5847      5845      5849
      5848      5845      5849      5842      5848      5845      5845      5849      5850
      5849      5850      5851      5849      5850      5852      5849      5850      5853
      5851      5850      5852      5851      5850      5853      5852      5850      5853
      5850      5853      5854      5850      5853      5855      5850      5853      5861
      5854      5853      5855      5854      5853      5861      5855      5853      5861
      5853      5855      5856      5855      5856      5857      5855      5856      5858
      5857      5856      5858      5856      5858      5859      5856      5858      5860
      5856      5858      5870      5859      5858      5860      5859      5858      5870
      5860      5858      5870      5853      5861      5862      5853      5861      5863
      5853      5861      5864      5862      5861      5863      5862      5861      5864
      5863      5861      5864      5861      5864      5865      5864      5865      5866
      5864      5865      5867      5866      5865      5867      5865      5867      5868
      5865      5867      5869      5865      5867      5917      5868      5867      5869
      5868      5867      5917      5869      5867      5917      5858      5870      5871
      5858      5870      5872      5858      5870      5873      5871      5870      5872
      5871      5870      5873      5872      5870      5873      5870      5873      5874
      5870      5873      5875      5870      5873      5876      5874      5873      5875
      5874      5873      5876      5875      5873      5876      5873      5876      5877
      5873      5876      5878      5873      5876      5879      5877      5876      5878
      5877      5876      5879      5878      5876      5879      5876      5879      5880
      5876      5879      5881      5876      5879      5882      5880      5879      5881
      5880      5879      5882      5881      5879      5882      5879      5882      5883
      5879      5882      5884      5879      5882      5885      5883      5882      5884
      5883      5882      5885      5884      5882      5885      5882      5885      5886
      5882      5885      5887      5882      5885      5888      5886      5885      5887
      5886      5885      5888      5887      5885      5888      5885      5888      5889
      5885      5888      5890      5889      5888      5890      5888      5890      5891
      5888      5890      5892      5891      5890      5892      5890      5892      5893
      5890      5892      5894      5890      5892      5895      5893      5892      5894
      5893      5892      5895      5894      5892      5895      5892      5895      5896
      5892      5895      5897      5892      5895      5898      5896      5895      5897
      5896      5895      5898      5897      5895      5898      5895      5898      5899
      5895      5898      5900      5895      5898      5901      5899      5898      5900
      5899      5898      5901      5900      5898      5901      5898      5901      5902
      5898      5901      5903      5898      5901      5904      5902      5901      5903
      5902      5901      5904      5903      5901      5904      5901      5904      5905
      5901      5904      5906      5901      5904      5907      5905      5904      5906
      5905      5904      5907      5906      5904      5907      5904      5907      5908
      5904      5907      5909      5904      5907      5910      5908      5907      5909
      5908      5907      5910      5909      5907      5910      5907      5910      5911
      5907      5910      5912      5907      5910      5913      5911      5910      5912
      5911      5910      5913      5912      5910      5913      5910      5913      5914
      5910      5913      5915      5910      5913      5916      5914      5913      5915
      5914      5913      5916      5915      5913      5916      5867      5917      5918
      5867      5917      5919      5867      5917      5920      5918      5917      5919
      5918      5917      5920      5919      5917      5920      5917      5920      5921
      5917      5920      5922      5917      5920      5923      5921      5920      5922
      5921      5920      5923      5922      5920      5923      5920      5923      5924
      5920      5923      5925      5920      5923      5926      5924      5923      5925
      5924      5923      5926      5925      5923      5926      5923      5926      5927
      5923      5926      5928      5923      5926      5929      5927      5926      5928
      5927      5926      5929      5928      5926      5929      5926      5929      5930
      5926      5929      5931      5926      5929      5932      5930      5929      5931
      5930      5929      5932      5931      5929      5932      5929      5932      5933
      5929      5932      5934      5929      5932      5935      5933      5932      5934
      5933      5932      5935      5934      5932      5935      5932      5935      5936
      5932      5935      5937      5932      5935      5938      5936      5935      5937
      5936      5935      5938      5937      5935      5938      5935      5938      5939
      5935      5938      5940      5935      5938      5941      5939      5938      5940
      5939      5938      5941      5940      5938      5941      5938      5941      5942
      5938      5941      5943      5938      5941      5944      5942      5941      5943
      5942      5941      5944      5943      5941      5944      5941      5944      5945
      5941      5944      5946      5941      5944      5947      5945      5944      5946
      5945      5944      5947      5946      5944      5947      5944      5947      5948
      5944      5947      5949      5944      5947      5950      5948      5947      5949
      5948      5947      5950      5949      5947      5950      5947      5950      5951
      5947      5950      5952      5947      5950      5953      5951      5950      5952
      5951      5950      5953      5952      5950      5953      5950      5953      5954
      5950      5953      5955      5950      5953      5956      5954      5953      5955
      5954      5953      5956      5955      5953      5956      5953      5956      5957
      5953      5956      5958      5953      5956      5959      5957      5956      5958
      5957      5956      5959      5958      5956      5959      5961      5960      5964
      5961      5960      5968      5961      5960      5972      5964      5960      5968
      5964      5960      5972      5968      5960      5972      5960      5961      5962
      5960      5961      5963      5960      5961      5976      5962      5961      5963
      5962      5961      5976      5963      5961      5976      5960      5964      5965
      5960      5964      5966      5960      5964      5967      5965      5964      5966
      5965      5964      5967      5966      5964      5967      5960      5968      5969
      5960      5968      5970      5960      5968      5971      5969      5968      5970
      5969      5968      5971      5970      5968      5971      5960      5972      5973
      5960      5972      5974      5960      5972      5975      5973      5972      5974
      5973      5972      5975      5974      5972      5975      5961      5976      5977
      5961      5976      5978      5961      5976      5982      5977      5976      5978
      5977      5976      5982      5978      5976      5982      5980      5979      5981
      5980      5979      5982      5980      5979      5983      5981      5979      5982
      5981      5979      5983      5982      5979      5983      5976      5982      5979
      5979      5983      5984      5983      5984      5985      5983      5984      5986
      5983      5984      5987      5985      5984      5986      5985      5984      5987
      5986      5984      5987      5984      5987      5988      5984      5987      5989
      5984      5987      5995      5988      5987      5989      5988      5987      5995
      5989      5987      5995      5987      5989      5990      5989      5990      5991
      5989      5990      5992      5991      5990      5992      5990      5992      5993
      5990      5992      5994      5990      5992      6004      5993      5992      5994
      5993      5992      6004      5994      5992      6004      5987      5995      5996
      5987      5995      5997      5987      5995      5998      5996      5995      5997
      5996      5995      5998      5997      5995      5998      5995      5998      5999
      5998      5999      6000      5998      5999      6001      6000      5999      6001
      5999      6001      6002      5999      6001      6003      5999      6001      6051
      6002      6001      6003      6002      6001      6051      6003      6001      6051
      5992      6004      6005      5992      6004      6006      5992      6004      6007
      6005      6004      6006      6005      6004      6007      6006      6004      6007
      6004      6007      6008      6004      6007      6009      6004      6007      6010
      6008      6007      6009      6008      6007      6010      6009      6007      6010
      6007      6010      6011      6007      6010      6012      6007      6010      6013
      6011      6010      6012      6011      6010      6013      6012      6010      6013
      6010      6013      6014      6010      6013      6015      6010      6013      6016
      6014      6013      6015      6014      6013      6016      6015      6013      6016
      6013      6016      6017      6013      6016      6018      6013      6016      6019
      6017      6016      6018      6017      6016      6019      6018      6016      6019
      6016      6019      6020      6016      6019      6021      6016      6019      6022
      6020      6019      6021      6020      6019      6022      6021      6019      6022
      6019      6022      6023      6019      6022      6024      6023      6022      6024
      6022      6024      6025      6022      6024      6026      6025      6024      6026
      6024      6026      6027      6024      6026      6028      6024      6026      6029
      6027      6026      6028      6027      6026      6029      6028      6026      6029
      6026      6029      6030      6026      6029      6031      6026      6029      6032
      6030      6029      6031      6030      6029      6032      6031      6029      6032
      6029      6032      6033      6029      6032      6034      6029      6032      6035
      6033      6032      6034      6033      6032      6035      6034      6032      6035
      6032      6035      6036      6032      6035      6037      6032      6035      6038
      6036      6035      6037      6036      6035      6038      6037      6035      6038
      6035      6038      6039      6035      6038      6040      6035      6038      6041
      6039      6038      6040      6039      6038      6041      6040      6038      6041
      6038      6041      6042      6038      6041      6043      6038      6041      6044
      6042      6041      6043      6042      6041      6044      6043      6041      6044
      6041      6044      6045      6041      6044      6046      6041      6044      6047
      6045      6044      6046      6045      6044      6047      6046      6044      6047
      6044      6047      6048      6044      6047      6049      6044      6047      6050
      6048      6047      6049      6048      6047      6050      6049      6047      6050
      6001      6051      6052      6001      6051      6053      6001      6051      6054
      6052      6051      6053      6052      6051      6054      6053      6051      6054
      6051      6054      6055      6051      6054      6056      6051      6054      6057
      6055      6054      6056      6055      6054      6057      6056      6054      6057
      6054      6057      6058      6054      6057      6059      6054      6057      6060
      6058      6057      6059      6058      6057      6060      6059      6057      6060
      6057      6060      6061      6057      6060      6062      6057      6060      6063
      6061      6060      6062      6061      6060      6063      6062      6060      6063
      6060      6063      6064      6060      6063      6065      6060      6063      6066
      6064      6063      6065      6064      6063      6066      6065      6063      6066
      6063      6066      6067      6063      6066      6068      6063      6066      6069
      6067      6066      6068      6067      6066      6069      6068      6066      6069
      6066      6069      6070      6066      6069      6071      6066      6069      6072
      6070      6069      6071      6070      6069      6072      6071      6069      6072
      6069      6072      6073      6069      6072      6074      6069      6072      6075
      6073      6072      6074      6073      6072      6075      6074      6072      6075
      6072      6075      6076      6072      6075      6077      6072      6075      6078
      6076      6075      6077      6076      6075      6078      6077      6075      6078
      6075      6078      6079      6075      6078      6080      6075      6078      6081
      6079      6078      6080      6079      6078      6081      6080      6078      6081
      6078      6081      6082      6078      6081      6083      6078      6081      6084
      6082      6081      6083      6082      6081      6084      6083      6081      6084
      6081      6084      6085      6081      6084      6086      6081      6084      6087
      6085      6084      6086      6085      6084      6087      6086      6084      6087
      6084      6087      6088      6084      6087      6089      6084      6087      6090
      6088      6087      6089      6088      6087      6090      6089      6087      6090
      6087      6090      6091      6087      6090      6092      6087      6090      6093
      6091      6090      6092      6091      6090      6093      6092      6090      6093
      6095      6094      6098      6095      6094      6102      6095      6094      6106
      6098      6094      6102      6098      6094      6106      6102      6094      6106
      6094      6095      6096      6094      6095      6097      6094      6095      6110
      6096      6095      6097      6096      6095      6110      6097      6095      6110
      6094      6098      6099      6094      6098      6100      6094      6098      6101
      6099      6098      6100      6099      6098      6101      6100      6098      6101
      6094      6102      6103      6094      6102      6104      6094      6102      6105
      6103      6102      6104      6103      6102      6105      6104      6102      6105
      6094      6106      6107      6094      6106      6108      6094      6106      6109
      6107      6106      6108      6107      6106      6109      6108      6106      6109
      6095      6110      6111      6095      6110      6112      6095      6110      6116
      6111      6110      6112      6111      6110      6116      6112      6110      6116
      6114      6113      6115      6114      6113      6116      6114      6113      6117
      6115      6113      6116      6115      6113      6117      6116      6113      6117
      6110      6116      6113      6113      6117      6118      6117      6118      6119
      6117      6118      6120      6117      6118      6121      6119      6118      6120
      6119      6118      6121      6120      6118      6121      6118      6121      6122
      6118      6121      6123      6118      6121      6129      6122      6121      6123
      6122      6121      6129      6123      6121      6129      6121      6123      6124
      6123      6124      6125      6123      6124      6126      6125      6124      6126
      6124      6126      6127      6124      6126      6128      6124      6126      6138
      6127      6126      6128      6127      6126      6138      6128      6126      6138
      6121      6129      6130      6121      6129      6131      6121      6129      6132
      6130      6129      6131      6130      6129      6132      6131      6129      6132
      6129      6132      6133      6132      6133      6134      6132      6133      6135
      6134      6133      6135      6133      6135      6136      6133      6135      6137
      6133      6135      6185      6136      6135      6137      6136      6135      6185
      6137      6135      6185      6126      6138      6139      6126      6138      6140
      6126      6138      6141      6139      6138      6140      6139      6138      6141
      6140      6138      6141      6138      6141      6142      6138      6141      6143
      6138      6141      6144      6142      6141      6143      6142      6141      6144
      6143      6141      6144      6141      6144      6145      6141      6144      6146
      6141      6144      6147      6145      6144      6146      6145      6144      6147
      6146      6144      6147      6144      6147      6148      6144      6147      6149
      6144      6147      6150      6148      6147      6149      6148      6147      6150
      6149      6147      6150      6147      6150      6151      6147      6150      6152
      6147      6150      6153      6151      6150      6152      6151      6150      6153
      6152      6150      6153      6150      6153      6154      6150      6153      6155
      6150      6153      6156      6154      6153      6155      6154      6153      6156
      6155      6153      6156      6153      6156      6157      6153      6156      6158
      6157      6156      6158      6156      6158      6159      6156      6158      6160
      6159      6158      6160      6158      6160      6161      6158      6160      6162
      6158      6160      6163      6161      6160      6162      6161      6160      6163
      6162      6160      6163      6160      6163      6164      6160      6163      6165
      6160      6163      6166      6164      6163      6165      6164      6163      6166
      6165      6163      6166      6163      6166      6167      6163      6166      6168
      6163      6166      6169      6167      6166      6168      6167      6166      6169
      6168      6166      6169      6166      6169      6170      6166      6169      6171
      6166      6169      6172      6170      6169      6171      6170      6169      6172
      6171      6169      6172      6169      6172      6173      6169      6172      6174
      6169      6172      6175      6173      6172      6174      6173      6172      6175
      6174      6172      6175      6172      6175      6176      6172      6175      6177
      6172      6175      6178      6176      6175      6177      6176      6175      6178
      6177      6175      6178      6175      6178      6179      6175      6178      6180
      6175      6178      6181      6179      6178      6180      6179      6178      6181
      6180      6178      6181      6178      6181      6182      6178      6181      6183
      6178      6181      6184      6182      6181      6183      6182      6181      6184
      6183      6181      6184      6135      6185      6186      6135      6185      6187
      6135      6185      6188      6186      6185      6187      6186      6185      6188
      6187      6185      6188      6185      6188      6189      6185      6188      6190
      6185      6188      6191      6189      6188      6190      6189      6188      6191
      6190      6188      6191      6188      6191      6192      6188      6191      6193
      6188      6191      6194      6192      6191      6193      6192      6191      6194
      6193      6191      6194      6191      6194      6195      6191      6194      6196
      6191      6194      6197      6195      6194      6196      6195      6194      6197
      6196      6194      6197      6194      6197      6198      6194      6197      6199
      6194      6197      6200      6198      6197      6199      6198      6197      6200
      6199      6197      6200      6197      6200      6201      6197      6200      6202
      6197      6200      6203      6201      6200      6202      6201      6200      6203
      6202      6200      6203      6200      6203      6204      6200      6203      6205
      6200      6203      6206      6204      6203      6205      6204      6203      6206
      6205      6203      6206      6203      6206      6207      6203      6206      6208
      6203      6206      6209      6207      6206      6208      6207      6206      6209
      6208      6206      6209      6206      6209      6210      6206      6209      6211
      6206      6209      6212      6210      6209      6211      6210      6209      6212
      6211      6209      6212      6209      6212      6213      6209      6212      6214
      6209      6212      6215      6213      6212      6214      6213      6212      6215
      6214      6212      6215      6212      6215      6216      6212      6215      6217
      6212      6215      6218      6216      6215      6217      6216      6215      6218
      6217      6215      6218      6215      6218      6219      6215      6218      6220
      6215      6218      6221      6219      6218      6220      6219      6218      6221
      6220      6218      6221      6218      6221      6222      6218      6221      6223
      6218      6221      6224      6222      6221      6223      6222      6221      6224
      6223      6221      6224      6221      6224      6225      6221      6224      6226
      6221      6224      6227      6225      6224      6226      6225      6224      6227
      6226      6224      6227      6229      6228      6232      6229      6228      6236
      6229      6228      6240      6232      6228      6236      6232      6228      6240
      6236      6228      6240      6228      6229      6230      6228      6229      6231
      6228      6229      6244      6230      6229      6231      6230      6229      6244
      6231      6229      6244      6228      6232      6233      6228      6232      6234
      6228      6232      6235      6233      6232      6234      6233      6232      6235
      6234      6232      6235      6228      6236      6237      6228      6236      6238
      6228      6236      6239      6237      6236      6238      6237      6236      6239
      6238      6236      6239      6228      6240      6241      6228      6240      6242
      6228      6240      6243      6241      6240      6242      6241      6240      6243
      6242      6240      6243      6229      6244      6245      6229      6244      6246
      6229      6244      6250      6245      6244      6246      6245      6244      6250
      6246      6244      6250      6248      6247      6249      6248      6247      6250
      6248      6247      6251      6249      6247      6250      6249      6247      6251
      6250      6247      6251      6244      6250      6247      6247      6251      6252
      6251      6252      6253      6251      6252      6254      6251      6252      6255
      6253      6252      6254      6253      6252      6255      6254      6252      6255
      6252      6255      6256      6252      6255      6257      6252      6255      6263
      6256      6255      6257      6256      6255      6263      6257      6255      6263
      6255      6257      6258      6257      6258      6259      6257      6258      6260
      6259      6258      6260      6258      6260      6261      6258      6260      6262
      6258      6260      6272      6261      6260      6262      6261      6260      6272
      6262      6260      6272      6255      6263      6264      6255      6263      6265
      6255      6263      6266      6264      6263      6265      6264      6263      6266
      6265      6263      6266      6263      6266      6267      6266      6267      6268
      6266      6267      6269      6268      6267      6269      6267      6269      6270
      6267      6269      6271      6267      6269      6319      6270      6269      6271
      6270      6269      6319      6271      6269      6319      6260      6272      6273
      6260      6272      6274      6260      6272      6275      6273      6272      6274
      6273      6272      6275      6274      6272      6275      6272      6275      6276
      6272      6275      6277      6272      6275      6278      6276      6275      6277
      6276      6275      6278      6277      6275      6278      6275      6278      6279
      6275      6278      6280      6275      6278      6281      6279      6278      6280
      6279      6278      6281      6280      6278      6281      6278      6281      6282
      6278      6281      6283      6278      6281      6284      6282      6281      6283
      6282      6281      6284      6283      6281      6284      6281      6284      6285
      6281      6284      6286      6281      6284      6287      6285      6284      6286
      6285      6284      6287      6286      6284      6287      6284      6287      6288
      6284      6287      6289      6284      6287      6290      6288      6287      6289
      6288      6287      6290      6289      6287      6290      6287      6290      6291
      6287      6290      6292      6291      6290      6292      6290      6292      6293
      6290      6292      6294      6293      6292      6294      6292      6294      6295
      6292      6294      6296      6292      6294      6297      6295      6294      6296
      6295      6294      6297      6296      6294      6297      6294      6297      6298
      6294      6297      6299      6294      6297      6300      6298      6297      6299
      6298      6297      6300      6299      6297      6300      6297      6300      6301
      6297      6300      6302      6297      6300      6303      6301      6300      6302
      6301      6300      6303      6302      6300      6303      6300      6303      6304
      6300      6303      6305      6300      6303      6306      6304      6303      6305
      6304      6303      6306      6305      6303      6306      6303      6306      6307
      6303      6306      6308      6303      6306      6309      6307      6306      6308
      6307      6306      6309      6308      6306      6309      6306      6309      6310
      6306      6309      6311      6306      6309      6312      6310      6309      6311
      6310      6309      6312      6311      6309      6312      6309      6312      6313
      6309      6312      6314      6309      6312      6315      6313      6312      6314
      6313      6312      6315      6314      6312      6315      6312      6315      6316
      6312      6315      6317      6312      6315      6318      6316      6315      6317
      6316      6315      6318      6317      6315      6318      6269      6319      6320
      6269      6319      6321      6269      6319      6322      6320      6319      6321
      6320      6319      6322      6321      6319      6322      6319      6322      6323
      6319      6322      6324      6319      6322      6325      6323      6322      6324
      6323      6322      6325      6324      6322      6325      6322      6325      6326
      6322      6325      6327      6322      6325      6328      6326      6325      6327
      6326      6325      6328      6327      6325      6328      6325      6328      6329
      6325      6328      6330      6325      6328      6331      6329      6328      6330
      6329      6328      6331      6330      6328      6331      6328      6331      6332
      6328      6331      6333      6328      6331      6334      6332      6331      6333
      6332      6331      6334      6333      6331      6334      6331      6334      6335
      6331      6334      6336      6331      6334      6337      6335      6334      6336
      6335      6334      6337      6336      6334      6337      6334      6337      6338
      6334      6337      6339      6334      6337      6340      6338      6337      6339
      6338      6337      6340      6339      6337      6340      6337      6340      6341
      6337      6340      6342      6337      6340      6343      6341      6340      6342
      6341      6340      6343      6342      6340      6343      6340      6343      6344
      6340      6343      6345      6340      6343      6346      6344      6343      6345
      6344      6343      6346      6345      6343      6346      6343      6346      6347
      6343      6346      6348      6343      6346      6349      6347      6346      6348
      6347      6346      6349      6348      6346      6349      6346      6349      6350
      6346      6349      6351      6346      6349      6352      6350      6349      6351
      6350      6349      6352      6351      6349      6352      6349      6352      6353
      6349      6352      6354      6349      6352      6355      6353      6352      6354
      6353      6352      6355      6354      6352      6355      6352      6355      6356
      6352      6355      6357      6352      6355      6358      6356      6355      6357
      6356      6355      6358      6357      6355      6358      6355      6358      6359
      6355      6358      6360      6355      6358      6361      6359      6358      6360
      6359      6358      6361      6360      6358      6361      6363      6362      6366
      6363      6362      6370      6363      6362      6374      6366      6362      6370
      6366      6362      6374      6370      6362      6374      6362      6363      6364
      6362      6363      6365      6362      6363      6378      6364      6363      6365
      6364      6363      6378      6365      6363      6378      6362      6366      6367
      6362      6366      6368      6362      6366      6369      6367      6366      6368
      6367      6366      6369      6368      6366      6369      6362      6370      6371
      6362      6370      6372      6362      6370      6373      6371      6370      6372
      6371      6370      6373      6372      6370      6373      6362      6374      6375
      6362      6374      6376      6362      6374      6377      6375      6374      6376
      6375      6374      6377      6376      6374      6377      6363      6378      6379
      6363      6378      6380      6363      6378      6384      6379      6378      6380
      6379      6378      6384      6380      6378      6384      6382      6381      6383
      6382      6381      6384      6382      6381      6385      6383      6381      6384
      6383      6381      6385      6384      6381      6385      6378      6384      6381
      6381      6385      6386      6385      6386      6387      6385      6386      6388
      6385      6386      6389      6387      6386      6388      6387      6386      6389
      6388      6386      6389      6386      6389      6390      6386      6389      6391
      6386      6389      6397      6390      6389      6391      6390      6389      6397
      6391      6389      6397      6389      6391      6392      6391      6392      6393
      6391      6392      6394      6393      6392      6394      6392      6394      6395
      6392      6394      6396      6392      6394      6406      6395      6394      6396
      6395      6394      6406      6396      6394      6406      6389      6397      6398
      6389      6397      6399      6389      6397      6400      6398      6397      6399
      6398      6397      6400      6399      6397      6400      6397      6400      6401
      6400      6401      6402      6400      6401      6403      6402      6401      6403
      6401      6403      6404      6401      6403      6405      6401      6403      6453
      6404      6403      6405      6404      6403      6453      6405      6403      6453
      6394      6406      6407      6394      6406      6408      6394      6406      6409
      6407      6406      6408      6407      6406      6409      6408      6406      6409
      6406      6409      6410      6406      6409      6411      6406      6409      6412
      6410      6409      6411      6410      6409      6412      6411      6409      6412
      6409      6412      6413      6409      6412      6414      6409      6412      6415
      6413      6412      6414      6413      6412      6415      6414      6412      6415
      6412      6415      6416      6412      6415      6417      6412      6415      6418
      6416      6415      6417      6416      6415      6418      6417      6415      6418
      6415      6418      6419      6415      6418      6420      6415      6418      6421
      6419      6418      6420      6419      6418      6421      6420      6418      6421
      6418      6421      6422      6418      6421      6423      6418      6421      6424
      6422      6421      6423      6422      6421      6424      6423      6421      6424
      6421      6424      6425      6421      6424      6426      6425      6424      6426
      6424      6426      6427      6424      6426      6428      6427      6426      6428
      6426      6428      6429      6426      6428      6430      6426      6428      6431
      6429      6428      6430      6429      6428      6431      6430      6428      6431
      6428      6431      6432      6428      6431      6433      6428      6431      6434
      6432      6431      6433      6432      6431      6434      6433      6431      6434
      6431      6434      6435      6431      6434      6436      6431      6434      6437
      6435      6434      6436      6435      6434      6437      6436      6434      6437
      6434      6437      6438      6434      6437      6439      6434      6437      6440
      6438      6437      6439      6438      6437      6440      6439      6437      6440
      6437      6440      6441      6437      6440      6442      6437      6440      6443
      6441      6440      6442      6441      6440      6443      6442      6440      6443
      6440      6443      6444      6440      6443      6445      6440      6443      6446
      6444      6443      6445      6444      6443      6446      6445      6443      6446
      6443      6446      6447      6443      6446      6448      6443      6446      6449
      6447      6446      6448      6447      6446      6449      6448      6446      6449
      6446      6449      6450      6446      6449      6451      6446      6449      6452
      6450      6449      6451      6450      6449      6452      6451      6449      6452
      6403      6453      6454      6403      6453      6455      6403      6453      6456
      6454      6453      6455      6454      6453      6456      6455      6453      6456
      6453      6456      6457      6453      6456      6458      6453      6456      6459
      6457      6456      6458      6457      6456      6459      6458      6456      6459
      6456      6459      6460      6456      6459      6461      6456      6459      6462
      6460      6459      6461      6460      6459      6462      6461      6459      6462
      6459      6462      6463      6459      6462      6464      6459      6462      6465
      6463      6462      6464      6463      6462      6465      6464      6462      6465
      6462      6465      6466      6462      6465      6467      6462      6465      6468
      6466      6465      6467      6466      6465      6468      6467      6465      6468
      6465      6468      6469      6465      6468      6470      6465      6468      6471
      6469      6468      6470      6469      6468      6471      6470      6468      6471
      6468      6471      6472      6468      6471      6473      6468      6471      6474
      6472      6471      6473      6472      6471      6474      6473      6471      6474
      6471      6474      6475      6471      6474      6476      6471      6474      6477
      6475      6474      6476      6475      6474      6477      6476      6474      6477
      6474      6477      6478      6474      6477      6479      6474      6477      6480
      6478      6477      6479      6478      6477      6480      6479      6477      6480
      6477      6480      6481      6477      6480      6482      6477      6480      6483
      6481      6480      6482      6481      6480      6483      6482      6480      6483
      6480      6483      6484      6480      6483      6485      6480      6483      6486
      6484      6483      6485      6484      6483      6486      6485      6483      6486
      6483      6486      6487      6483      6486      6488      6483      6486      6489
      6487      6486      6488      6487      6486      6489      6488      6486      6489
      6486      6489      6490      6486      6489      6491      6486      6489      6492
      6490      6489      6491      6490      6489      6492      6491      6489      6492
      6489      6492      6493      6489      6492      6494      6489      6492      6495
      6493      6492      6494      6493      6492      6495      6494      6492      6495
      6497      6496      6498      6497      6496      6499      6497      6496      6500
      6498      6496      6499      6498      6496      6500      6499      6496      6500
      6496      6500      6501      6496      6500      6502      6496      6500      6505
      6501      6500      6502      6501      6500      6505      6502      6500      6505
      6500      6502      6503      6500      6502      6504      6503      6502      6504
      6500      6505      6506      6500      6505      6507      6500      6505      6511
      6506      6505      6507      6506      6505      6511      6507      6505      6511
      6509      6508      6510      6509      6508      6511      6509      6508      6512
      6510      6508      6511      6510      6508      6512      6511      6508      6512
      6505      6511      6508      6508      6512      6513      6512      6513      6514
      6512      6513      6515      6512      6513      6516      6514      6513      6515
      6514      6513      6516      6515      6513      6516      6513      6516      6517
      6513      6516      6518      6513      6516      6524      6517      6516      6518
      6517      6516      6524      6518      6516      6524      6516      6518      6519
      6518      6519      6520      6518      6519      6521      6520      6519      6521
      6519      6521      6522      6519      6521      6523      6519      6521      6533
      6522      6521      6523      6522      6521      6533      6523      6521      6533
      6516      6524      6525      6516      6524      6526      6516      6524      6527
      6525      6524      6526      6525      6524      6527      6526      6524      6527
      6524      6527      6528      6527      6528      6529      6527      6528      6530
      6529      6528      6530      6528      6530      6531      6528      6530      6532
      6528      6530      6580      6531      6530      6532      6531      6530      6580
      6532      6530      6580      6521      6533      6534      6521      6533      6535
      6521      6533      6536      6534      6533      6535      6534      6533      6536
      6535      6533      6536      6533      6536      6537      6533      6536      6538
      6533      6536      6539      6537      6536      6538      6537      6536      6539
      6538      6536      6539      6536      6539      6540      6536      6539      6541
      6536      6539      6542      6540      6539      6541      6540      6539      6542
      6541      6539      6542      6539      6542      6543      6539      6542      6544
      6539      6542      6545      6543      6542      6544      6543      6542      6545
      6544      6542      6545      6542      6545      6546      6542      6545      6547
      6542      6545      6548      6546      6545      6547      6546      6545      6548
      6547      6545      6548      6545      6548      6549      6545      6548      6550
      6545      6548      6551      6549      6548      6550      6549      6548      6551
      6550      6548      6551      6548      6551      6552      6548      6551      6553
      6552      6551      6553      6551      6553      6554      6551      6553      6555
      6554      6553      6555      6553      6555      6556      6553      6555      6557
      6553      6555      6558      6556      6555      6557      6556      6555      6558
      6557      6555      6558      6555      6558      6559      6555      6558      6560
      6555      6558      6561      6559      6558      6560      6559      6558      6561
      6560      6558      6561      6558      6561      6562      6558      6561      6563
      6558      6561      6564      6562      6561      6563      6562      6561      6564
      6563      6561      6564      6561      6564      6565      6561      6564      6566
      6561      6564      6567      6565      6564      6566      6565      6564      6567
      6566      6564      6567      6564      6567      6568      6564      6567      6569
      6564      6567      6570      6568      6567      6569      6568      6567      6570
      6569      6567      6570      6567      6570      6571      6567      6570      6572
      6567      6570      6573      6571      6570      6572      6571      6570      6573
      6572      6570      6573      6570      6573      6574      6570      6573      6575
      6570      6573      6576      6574      6573      6575      6574      6573      6576
      6575      6573      6576      6573      6576      6577      6573      6576      6578
      6573      6576      6579      6577      6576      6578      6577      6576      6579
      6578      6576      6579      6530      6580      6581      6530      6580      6582
      6530      6580      6583      6581      6580      6582      6581      6580      6583
      6582      6580      6583      6580      6583      6584      6580      6583      6585
      6580      6583      6586      6584      6583      6585      6584      6583      6586
      6585      6583      6586      6583      6586      6587      6583      6586      6588
      6583      6586      6589      6587      6586      6588      6587      6586      6589
      6588      6586      6589      6586      6589      6590      6586      6589      6591
      6586      6589      6592      6590      6589      6591      6590      6589      6592
      6591      6589      6592      6589      6592      6593      6589      6592      6594
      6589      6592      6595      6593      6592      6594      6593      6592      6595
      6594      6592      6595      6592      6595      6596      6592      6595      6597
      6592      6595      6598      6596      6595      6597      6596      6595      6598
      6597      6595      6598      6595      6598      6599      6595      6598      6600
      6595      6598      6601      6599      6598      6600      6599      6598      6601
      6600      6598      6601      6598      6601      6602      6598      6601      6603
      6598      6601      6604      6602      6601      6603      6602      6601      6604
      6603      6601      6604      6601      6604      6605      6601      6604      6606
      6601      6604      6607      6605      6604      6606      6605      6604      6607
      6606      6604      6607      6604      6607      6608      6604      6607      6609
      6604      6607      6610      6608      6607      6609      6608      6607      6610
      6609      6607      6610      6607      6610      6611      6607      6610      6612
      6607      6610      6613      6611      6610      6612      6611      6610      6613
      6612      6610      6613      6610      6613      6614      6610      6613      6615
      6610      6613      6616      6614      6613      6615      6614      6613      6616
      6615      6613      6616      6613      6616      6617      6613      6616      6618
      6613      6616      6619      6617      6616      6618      6617      6616      6619
      6618      6616      6619      6616      6619      6620      6616      6619      6621
      6616      6619      6622      6620      6619      6621      6620      6619      6622
      6621      6619      6622      6624      6623      6625      6624      6623      6626
      6624      6623      6627      6625      6623      6626      6625      6623      6627
      6626      6623      6627      6623      6627      6628      6623      6627      6629
      6623      6627      6632      6628      6627      6629      6628      6627      6632
      6629      6627      6632      6627      6629      6630      6627      6629      6631
      6630      6629      6631      6627      6632      6633      6627      6632      6634
      6627      6632      6638      6633      6632      6634      6633      6632      6638
      6634      6632      6638      6636      6635      6637      6636      6635      6638
      6636      6635      6639      6637      6635      6638      6637      6635      6639
      6638      6635      6639      6632      6638      6635      6635      6639      6640
      6639      6640      6641      6639      6640      6642      6639      6640      6643
      6641      6640      6642      6641      6640      6643      6642      6640      6643
      6640      6643      6644      6640      6643      6645      6640      6643      6651
      6644      6643      6645      6644      6643      6651      6645      6643      6651
      6643      6645      6646      6645      6646      6647      6645      6646      6648
      6647      6646      6648      6646      6648      6649      6646      6648      6650
      6646      6648      6660      6649      6648      6650      6649      6648      6660
      6650      6648      6660      6643      6651      6652      6643      6651      6653
      6643      6651      6654      6652      6651      6653      6652      6651      6654
      6653      6651      6654      6651      6654      6655      6654      6655      6656
      6654      6655      6657      6656      6655      6657      6655      6657      6658
      6655      6657      6659      6655      6657      6707      6658      6657      6659
      6658      6657      6707      6659      6657      6707      6648      6660      6661
      6648      6660      6662      6648      6660      6663      6661      6660      6662
      6661      6660      6663      6662      6660      6663      6660      6663      6664
      6660      6663      6665      6660      6663      6666      6664      6663      6665
      6664      6663      6666      6665      6663      6666      6663      6666      6667
      6663      6666      6668      6663      6666      6669      6667      6666      6668
      6667      6666      6669      6668      6666      6669      6666      6669      6670
      6666      6669      6671      6666      6669      6672      6670      6669      6671
      6670      6669      6672      6671      6669      6672      6669      6672      6673
      6669      6672      6674      6669      6672      6675      6673      6672      6674
      6673      6672      6675      6674      6672      6675      6672      6675      6676
      6672      6675      6677      6672      6675      6678      6676      6675      6677
      6676      6675      6678      6677      6675      6678      6675      6678      6679
      6675      6678      6680      6679      6678      6680      6678      6680      6681
      6678      6680      6682      6681      6680      6682      6680      6682      6683
      6680      6682      6684      6680      6682      6685      6683      6682      6684
      6683      6682      6685      6684      6682      6685      6682      6685      6686
      6682      6685      6687      6682      6685      6688      6686      6685      6687
      6686      6685      6688      6687      6685      6688      6685      6688      6689
      6685      6688      6690      6685      6688      6691      6689      6688      6690
      6689      6688      6691      6690      6688      6691      6688      6691      6692
      6688      6691      6693      6688      6691      6694      6692      6691      6693
      6692      6691      6694      6693      6691      6694      6691      6694      6695
      6691      6694      6696      6691      6694      6697      6695      6694      6696
      6695      6694      6697      6696      6694      6697      6694      6697      6698
      6694      6697      6699      6694      6697      6700      6698      6697      6699
      6698      6697      6700      6699      6697      6700      6697      6700      6701
      6697      6700      6702      6697      6700      6703      6701      6700      6702
      6701      6700      6703      6702      6700      6703      6700      6703      6704
      6700      6703      6705      6700      6703      6706      6704      6703      6705
      6704      6703      6706      6705      6703      6706      6657      6707      6708
      6657      6707      6709      6657      6707      6710      6708      6707      6709
      6708      6707      6710      6709      6707      6710      6707      6710      6711
      6707      6710      6712      6707      6710      6713      6711      6710      6712
      6711      6710      6713      6712      6710      6713      6710      6713      6714
      6710      6713      6715      6710      6713      6716      6714      6713      6715
      6714      6713      6716      6715      6713      6716      6713      6716      6717
      6713      6716      6718      6713      6716      6719      6717      6716      6718
      6717      6716      6719      6718      6716      6719      6716      6719      6720
      6716      6719      6721      6716      6719      6722      6720      6719      6721
      6720      6719      6722      6721      6719      6722      6719      6722      6723
      6719      6722      6724      6719      6722      6725      6723      6722      6724
      6723      6722      6725      6724      6722      6725      6722      6725      6726
      6722      6725      6727      6722      6725      6728      6726      6725      6727
      6726      6725      6728      6727      6725      6728      6725      6728      6729
      6725      6728      6730      6725      6728      6731      6729      6728      6730
      6729      6728      6731      6730      6728      6731      6728      6731      6732
      6728      6731      6733      6728      6731      6734      6732      6731      6733
      6732      6731      6734      6733      6731      6734      6731      6734      6735
      6731      6734      6736      6731      6734      6737      6735      6734      6736
      6735      6734      6737      6736      6734      6737      6734      6737      6738
      6734      6737      6739      6734      6737      6740      6738      6737      6739
      6738      6737      6740      6739      6737      6740      6737      6740      6741
      6737      6740      6742      6737      6740      6743      6741      6740      6742
      6741      6740      6743      6742      6740      6743      6740      6743      6744
      6740      6743      6745      6740      6743      6746      6744      6743      6745
      6744      6743      6746      6745      6743      6746      6743      6746      6747
      6743      6746      6748      6743      6746      6749      6747      6746      6748
      6747      6746      6749      6748      6746      6749      6751      6750      6752
      6751      6750      6753      6751      6750      6754      6752      6750      6753
      6752      6750      6754      6753      6750      6754      6750      6754      6755
      6750      6754      6756      6750      6754      6759      6755      6754      6756
      6755      6754      6759      6756      6754      6759      6754      6756      6757
      6754      6756      6758      6757      6756      6758      6754      6759      6760
      6754      6759      6761      6754      6759      6765      6760      6759      6761
      6760      6759      6765      6761      6759      6765      6763      6762      6764
      6763      6762      6765      6763      6762      6766      6764      6762      6765
      6764      6762      6766      6765      6762      6766      6759      6765      6762
      6762      6766      6767      6766      6767      6768      6766      6767      6769
      6766      6767      6770      6768      6767      6769      6768      6767      6770
      6769      6767      6770      6767      6770      6771      6767      6770      6772
      6767      6770      6778      6771      6770      6772      6771      6770      6778
      6772      6770      6778      6770      6772      6773      6772      6773      6774
      6772      6773      6775      6774      6773      6775      6773      6775      6776
      6773      6775      6777      6773      6775      6787      6776      6775      6777
      6776      6775      6787      6777      6775      6787      6770      6778      6779
      6770      6778      6780      6770      6778      6781      6779      6778      6780
      6779      6778      6781      6780      6778      6781      6778      6781      6782
      6781      6782      6783      6781      6782      6784      6783      6782      6784
      6782      6784      6785      6782      6784      6786      6782      6784      6834
      6785      6784      6786      6785      6784      6834      6786      6784      6834
      6775      6787      6788      6775      6787      6789      6775      6787      6790
      6788      6787      6789      6788      6787      6790      6789      6787      6790
      6787      6790      6791      6787      6790      6792      6787      6790      6793
      6791      6790      6792      6791      6790      6793      6792      6790      6793
      6790      6793      6794      6790      6793      6795      6790      6793      6796
      6794      6793      6795      6794      6793      6796      6795      6793      6796
      6793      6796      6797      6793      6796      6798      6793      6796      6799
      6797      6796      6798      6797      6796      6799      6798      6796      6799
      6796      6799      6800      6796      6799      6801      6796      6799      6802
      6800      6799      6801      6800      6799      6802      6801      6799      6802
      6799      6802      6803      6799      6802      6804      6799      6802      6805
      6803      6802      6804      6803      6802      6805      6804      6802      6805
      6802      6805      6806      6802      6805      6807      6806      6805      6807
      6805      6807      6808      6805      6807      6809      6808      6807      6809
      6807      6809      6810      6807      6809      6811      6807      6809      6812
      6810      6809      6811      6810      6809      6812      6811      6809      6812
      6809      6812      6813      6809      6812      6814      6809      6812      6815
      6813      6812      6814      6813      6812      6815      6814      6812      6815
      6812      6815      6816      6812      6815      6817      6812      6815      6818
      6816      6815      6817      6816      6815      6818      6817      6815      6818
      6815      6818      6819      6815      6818      6820      6815      6818      6821
      6819      6818      6820      6819      6818      6821      6820      6818      6821
      6818      6821      6822      6818      6821      6823      6818      6821      6824
      6822      6821      6823      6822      6821      6824      6823      6821      6824
      6821      6824      6825      6821      6824      6826      6821      6824      6827
      6825      6824      6826      6825      6824      6827      6826      6824      6827
      6824      6827      6828      6824      6827      6829      6824      6827      6830
      6828      6827      6829      6828      6827      6830      6829      6827      6830
      6827      6830      6831      6827      6830      6832      6827      6830      6833
      6831      6830      6832      6831      6830      6833      6832      6830      6833
      6784      6834      6835      6784      6834      6836      6784      6834      6837
      6835      6834      6836      6835      6834      6837      6836      6834      6837
      6834      6837      6838      6834      6837      6839      6834      6837      6840
      6838      6837      6839      6838      6837      6840      6839      6837      6840
      6837      6840      6841      6837      6840      6842      6837      6840      6843
      6841      6840      6842      6841      6840      6843      6842      6840      6843
      6840      6843      6844      6840      6843      6845      6840      6843      6846
      6844      6843      6845      6844      6843      6846      6845      6843      6846
      6843      6846      6847      6843      6846      6848      6843      6846      6849
      6847      6846      6848      6847      6846      6849      6848      6846      6849
      6846      6849      6850      6846      6849      6851      6846      6849      6852
      6850      6849      6851      6850      6849      6852      6851      6849      6852
      6849      6852      6853      6849      6852      6854      6849      6852      6855
      6853      6852      6854      6853      6852      6855      6854      6852      6855
      6852      6855      6856      6852      6855      6857      6852      6855      6858
      6856      6855      6857      6856      6855      6858      6857      6855      6858
      6855      6858      6859      6855      6858      6860      6855      6858      6861
      6859      6858      6860      6859      6858      6861      6860      6858      6861
      6858      6861      6862      6858      6861      6863      6858      6861      6864
      6862      6861      6863      6862      6861      6864      6863      6861      6864
      6861      6864      6865      6861      6864      6866      6861      6864      6867
      6865      6864      6866      6865      6864      6867      6866      6864      6867
      6864      6867      6868      6864      6867      6869      6864      6867      6870
      6868      6867      6869      6868      6867      6870      6869      6867      6870
      6867      6870      6871      6867      6870      6872      6867      6870      6873
      6871      6870      6872      6871      6870      6873      6872      6870      6873
      6870      6873      6874      6870      6873      6875      6870      6873      6876
      6874      6873      6875      6874      6873      6876      6875      6873      6876
      6878      6877      6881      6878      6877      6885      6878      6877      6889
      6881      6877      6885      6881      6877      6889      6885      6877      6889
      6877      6878      6879      6877      6878      6880      6877      6878      6893
      6879      6878      6880      6879      6878      6893      6880      6878      6893
      6877      6881      6882      6877      6881      6883      6877      6881      6884
      6882      6881      6883      6882      6881      6884      6883      6881      6884
      6877      6885      6886      6877      6885      6887      6877      6885      6888
      6886      6885      6887      6886      6885      6888      6887      6885      6888
      6877      6889      6890      6877      6889      6891      6877      6889      6892
      6890      6889      6891      6890      6889      6892      6891      6889      6892
      6878      6893      6894      6878      6893      6895      6878      6893      6899
      6894      6893      6895      6894      6893      6899      6895      6893      6899
      6897      6896      6898      6897      6896      6899      6897      6896      6900
      6898      6896      6899      6898      6896      6900      6899      6896      6900
      6893      6899      6896      6896      6900      6901      6900      6901      6902
      6900      6901      6903      6900      6901      6904      6902      6901      6903
      6902      6901      6904      6903      6901      6904      6901      6904      6905
      6901      6904      6906      6901      6904      6912      6905      6904      6906
      6905      6904      6912      6906      6904      6912      6904      6906      6907
      6906      6907      6908      6906      6907      6909      6908      6907      6909
      6907      6909      6910      6907      6909      6911      6907      6909      6921
      6910      6909      6911      6910      6909      6921      6911      6909      6921
      6904      6912      6913      6904      6912      6914      6904      6912      6915
      6913      6912      6914      6913      6912      6915      6914      6912      6915
      6912      6915      6916      6915      6916      6917      6915      6916      6918
      6917      6916      6918      6916      6918      6919      6916      6918      6920
      6916      6918      6968      6919      6918      6920      6919      6918      6968
      6920      6918      6968      6909      6921      6922      6909      6921      6923
      6909      6921      6924      6922      6921      6923      6922      6921      6924
      6923      6921      6924      6921      6924      6925      6921      6924      6926
      6921      6924      6927      6925      6924      6926      6925      6924      6927
      6926      6924      6927      6924      6927      6928      6924      6927      6929
      6924      6927      6930      6928      6927      6929      6928      6927      6930
      6929      6927      6930      6927      6930      6931      6927      6930      6932
      6927      6930      6933      6931      6930      6932      6931      6930      6933
      6932      6930      6933      6930      6933      6934      6930      6933      6935
      6930      6933      6936      6934      6933      6935      6934      6933      6936
      6935      6933      6936      6933      6936      6937      6933      6936      6938
      6933      6936      6939      6937      6936      6938      6937      6936      6939
      6938      6936      6939      6936      6939      6940      6936      6939      6941
      6940      6939      6941      6939      6941      6942      6939      6941      6943
      6942      6941      6943      6941      6943      6944      6941      6943      6945
      6941      6943      6946      6944      6943      6945      6944      6943      6946
      6945      6943      6946      6943      6946      6947      6943      6946      6948
      6943      6946      6949      6947      6946      6948      6947      6946      6949
      6948      6946      6949      6946      6949      6950      6946      6949      6951
      6946      6949      6952      6950      6949      6951      6950      6949      6952
      6951      6949      6952      6949      6952      6953      6949      6952      6954
      6949      6952      6955      6953      6952      6954      6953      6952      6955
      6954      6952      6955      6952      6955      6956      6952      6955      6957
      6952      6955      6958      6956      6955      6957      6956      6955      6958
      6957      6955      6958      6955      6958      6959      6955      6958      6960
      6955      6958      6961      6959      6958      6960      6959      6958      6961
      6960      6958      6961      6958      6961      6962      6958      6961      6963
      6958      6961      6964      6962      6961      6963      6962      6961      6964
      6963      6961      6964      6961      6964      6965      6961      6964      6966
      6961      6964      6967      6965      6964      6966      6965      6964      6967
      6966      6964      6967      6918      6968      6969      6918      6968      6970
      6918      6968      6971      6969      6968      6970      6969      6968      6971
      6970      6968      6971      6968      6971      6972      6968      6971      6973
      6968      6971      6974      6972      6971      6973      6972      6971      6974
      6973      6971      6974      6971      6974      6975      6971      6974      6976
      6971      6974      6977      6975      6974      6976      6975      6974      6977
      6976      6974      6977      6974      6977      6978      6974      6977      6979
      6974      6977      6980      6978      6977      6979      6978      6977      6980
      6979      6977      6980      6977      6980      6981      6977      6980      6982
      6977      6980      6983      6981      6980      6982      6981      6980      6983
      6982      6980      6983      6980      6983      6984      6980      6983      6985
      6980      6983      6986      6984      6983      6985      6984      6983      6986
      6985      6983      6986      6983      6986      6987      6983      6986      6988
      6983      6986      6989      6987      6986      6988      6987      6986      6989
      6988      6986      6989      6986      6989      6990      6986      6989      6991
      6986      6989      6992      6990      6989      6991      6990      6989      6992
      6991      6989      6992      6989      6992      6993      6989      6992      6994
      6989      6992      6995      6993      6992      6994      6993      6992      6995
      6994      6992      6995      6992      6995      6996      6992      6995      6997
      6992      6995      6998      6996      6995      6997      6996      6995      6998
      6997      6995      6998      6995      6998      6999      6995      6998      7000
      6995      6998      7001      6999      6998      7000      6999      6998      7001
      7000      6998      7001      6998      7001      7002      6998      7001      7003
      6998      7001      7004      7002      7001      7003      7002      7001      7004
      7003      7001      7004      7001      7004      7005      7001      7004      7006
      7001      7004      7007      7005      7004      7006      7005      7004      7007
      7006      7004      7007      7004      7007      7008      7004      7007      7009
      7004      7007      7010      7008      7007      7009      7008      7007      7010
      7009      7007      7010      7012      7011      7015      7012      7011      7019
      7012      7011      7023      7015      7011      7019      7015      7011      7023
      7019      7011      7023      7011      7012      7013      7011      7012      7014
      7011      7012      7027      7013      7012      7014      7013      7012      7027
      7014      7012      7027      7011      7015      7016      7011      7015      7017
      7011      7015      7018      7016      7015      7017      7016      7015      7018
      7017      7015      7018      7011      7019      7020      7011      7019      7021
      7011      7019      7022      7020      7019      7021      7020      7019      7022
      7021      7019      7022      7011      7023      7024      7011      7023      7025
      7011      7023      7026      7024      7023      7025      7024      7023      7026
      7025      7023      7026      7012      7027      7028      7012      7027      7029
      7012      7027      7033      7028      7027      7029      7028      7027      7033
      7029      7027      7033      7031      7030      7032      7031      7030      7033
      7031      7030      7034      7032      7030      7033      7032      7030      7034
      7033      7030      7034      7027      7033      7030      7030      7034      7035
      7034      7035      7036      7034      7035      7037      7034      7035      7038
      7036      7035      7037      7036      7035      7038      7037      7035      7038
      7035      7038      7039      7035      7038      7040      7035      7038      7046
      7039      7038      7040      7039      7038      7046      7040      7038      7046
      7038      7040      7041      7040      7041      7042      7040      7041      7043
      7042      7041      7043      7041      7043      7044      7041      7043      7045
      7041      7043      7055      7044      7043      7045      7044      7043      7055
      7045      7043      7055      7038      7046      7047      7038      7046      7048
      7038      7046      7049      7047      7046      7048      7047      7046      7049
      7048      7046      7049      7046      7049      7050      7049      7050      7051
      7049      7050      7052      7051      7050      7052      7050      7052      7053
      7050      7052      7054      7050      7052      7102      7053      7052      7054
      7053      7052      7102      7054      7052      7102      7043      7055      7056
      7043      7055      7057      7043      7055      7058      7056      7055      7057
      7056      7055      7058      7057      7055      7058      7055      7058      7059
      7055      7058      7060      7055      7058      7061      7059      7058      7060
      7059      7058      7061      7060      7058      7061      7058      7061      7062
      7058      7061      7063      7058      7061      7064      7062      7061      7063
      7062      7061      7064      7063      7061      7064      7061      7064      7065
      7061      7064      7066      7061      7064      7067      7065      7064      7066
      7065      7064      7067      7066      7064      7067      7064      7067      7068
      7064      7067      7069      7064      7067      7070      7068      7067      7069
      7068      7067      7070      7069      7067      7070      7067      7070      7071
      7067      7070      7072      7067      7070      7073      7071      7070      7072
      7071      7070      7073      7072      7070      7073      7070      7073      7074
      7070      7073      7075      7074      7073      7075      7073      7075      7076
      7073      7075      7077      7076      7075      7077      7075      7077      7078
      7075      7077      7079      7075      7077      7080      7078      7077      7079
      7078      7077      7080      7079      7077      7080      7077      7080      7081
      7077      7080      7082      7077      7080      7083      7081      7080      7082
      7081      7080      7083      7082      7080      7083      7080      7083      7084
      7080      7083      7085      7080      7083      7086      7084      7083      7085
      7084      7083      7086      7085      7083      7086      7083      7086      7087
      7083      7086      7088      7083      7086      7089      7087      7086      7088
      7087      7086      7089      7088      7086      7089      7086      7089      7090
      7086      7089      7091      7086      7089      7092      7090      7089      7091
      7090      7089      7092      7091      7089      7092      7089      7092      7093
      7089      7092      7094      7089      7092      7095      7093      7092      7094
      7093      7092      7095      7094      7092      7095      7092      7095      7096
      7092      7095      7097      7092      7095      7098      7096      7095      7097
      7096      7095      7098      7097      7095      7098      7095      7098      7099
      7095      7098      7100      7095      7098      7101      7099      7098      7100
      7099      7098      7101      7100      7098      7101      7052      7102      7103
      7052      7102      7104      7052      7102      7105      7103      7102      7104
      7103      7102      7105      7104      7102      7105      7102      7105      7106
      7102      7105      7107      7102      7105      7108      7106      7105      7107
      7106      7105      7108      7107      7105      7108      7105      7108      7109
      7105      7108      7110      7105      7108      7111      7109      7108      7110
      7109      7108      7111      7110      7108      7111      7108      7111      7112
      7108      7111      7113      7108      7111      7114      7112      7111      7113
      7112      7111      7114      7113      7111      7114      7111      7114      7115
      7111      7114      7116      7111      7114      7117      7115      7114      7116
      7115      7114      7117      7116      7114      7117      7114      7117      7118
      7114      7117      7119      7114      7117      7120      7118      7117      7119
      7118      7117      7120      7119      7117      7120      7117      7120      7121
      7117      7120      7122      7117      7120      7123      7121      7120      7122
      7121      7120      7123      7122      7120      7123      7120      7123      7124
      7120      7123      7125      7120      7123      7126      7124      7123      7125
      7124      7123      7126      7125      7123      7126      7123      7126      7127
      7123      7126      7128      7123      7126      7129      7127      7126      7128
      7127      7126      7129      7128      7126      7129      7126      7129      7130
      7126      7129      7131      7126      7129      7132      7130      7129      7131
      7130      7129      7132      7131      7129      7132      7129      7132      7133
      7129      7132      7134      7129      7132      7135      7133      7132      7134
      7133      7132      7135      7134      7132      7135      7132      7135      7136
      7132      7135      7137      7132      7135      7138      7136      7135      7137
      7136      7135      7138      7137      7135      7138      7135      7138      7139
      7135      7138      7140      7135      7138      7141      7139      7138      7140
      7139      7138      7141      7140      7138      7141      7138      7141      7142
      7138      7141      7143      7138      7141      7144      7142      7141      7143
      7142      7141      7144      7143      7141      7144      7146      7145      7149
      7146      7145      7153      7146      7145      7157      7149      7145      7153
      7149      7145      7157      7153      7145      7157      7145      7146      7147
      7145      7146      7148      7145      7146      7161      7147      7146      7148
      7147      7146      7161      7148      7146      7161      7145      7149      7150
      7145      7149      7151      7145      7149      7152      7150      7149      7151
      7150      7149      7152      7151      7149      7152      7145      7153      7154
      7145      7153      7155      7145      7153      7156      7154      7153      7155
      7154      7153      7156      7155      7153      7156      7145      7157      7158
      7145      7157      7159      7145      7157      7160      7158      7157      7159
      7158      7157      7160      7159      7157      7160      7146      7161      7162
      7146      7161      7163      7146      7161      7167      7162      7161      7163
      7162      7161      7167      7163      7161      7167      7165      7164      7166
      7165      7164      7167      7165      7164      7168      7166      7164      7167
      7166      7164      7168      7167      7164      7168      7161      7167      7164
      7164      7168      7169      7168      7169      7170      7168      7169      7171
      7168      7169      7172      7170      7169      7171      7170      7169      7172
      7171      7169      7172      7169      7172      7173      7169      7172      7174
      7169      7172      7180      7173      7172      7174      7173      7172      7180
      7174      7172      7180      7172      7174      7175      7174      7175      7176
      7174      7175      7177      7176      7175      7177      7175      7177      7178
      7175      7177      7179      7175      7177      7189      7178      7177      7179
      7178      7177      7189      7179      7177      7189      7172      7180      7181
      7172      7180      7182      7172      7180      7183      7181      7180      7182
      7181      7180      7183      7182      7180      7183      7180      7183      7184
      7183      7184      7185      7183      7184      7186      7185      7184      7186
      7184      7186      7187      7184      7186      7188      7184      7186      7236
      7187      7186      7188      7187      7186      7236      7188      7186      7236
      7177      7189      7190      7177      7189      7191      7177      7189      7192
      7190      7189      7191      7190      7189      7192      7191      7189      7192
      7189      7192      7193      7189      7192      7194      7189      7192      7195
      7193      7192      7194      7193      7192      7195      7194      7192      7195
      7192      7195      7196      7192      7195      7197      7192      7195      7198
      7196      7195      7197      7196      7195      7198      7197      7195      7198
      7195      7198      7199      7195      7198      7200      7195      7198      7201
      7199      7198      7200      7199      7198      7201      7200      7198      7201
      7198      7201      7202      7198      7201      7203      7198      7201      7204
      7202      7201      7203      7202      7201      7204      7203      7201      7204
      7201      7204      7205      7201      7204      7206      7201      7204      7207
      7205      7204      7206      7205      7204      7207      7206      7204      7207
      7204      7207      7208      7204      7207      7209      7208      7207      7209
      7207      7209      7210      7207      7209      7211      7210      7209      7211
      7209      7211      7212      7209      7211      7213      7209      7211      7214
      7212      7211      7213      7212      7211      7214      7213      7211      7214
      7211      7214      7215      7211      7214      7216      7211      7214      7217
      7215      7214      7216      7215      7214      7217      7216      7214      7217
      7214      7217      7218      7214      7217      7219      7214      7217      7220
      7218      7217      7219      7218      7217      7220      7219      7217      7220
      7217      7220      7221      7217      7220      7222      7217      7220      7223
      7221      7220      7222      7221      7220      7223      7222      7220      7223
      7220      7223      7224      7220      7223      7225      7220      7223      7226
      7224      7223      7225      7224      7223      7226      7225      7223      7226
      7223      7226      7227      7223      7226      7228      7223      7226      7229
      7227      7226      7228      7227      7226      7229      7228      7226      7229
      7226      7229      7230      7226      7229      7231      7226      7229      7232
      7230      7229      7231      7230      7229      7232      7231      7229      7232
      7229      7232      7233      7229      7232      7234      7229      7232      7235
      7233      7232      7234      7233      7232      7235      7234      7232      7235
      7186      7236      7237      7186      7236      7238      7186      7236      7239
      7237      7236      7238      7237      7236      7239      7238      7236      7239
      7236      7239      7240      7236      7239      7241      7236      7239      7242
      7240      7239      7241      7240      7239      7242      7241      7239      7242
      7239      7242      7243      7239      7242      7244      7239      7242      7245
      7243      7242      7244      7243      7242      7245      7244      7242      7245
      7242      7245      7246      7242      7245      7247      7242      7245      7248
      7246      7245      7247      7246      7245      7248      7247      7245      7248
      7245      7248      7249      7245      7248      7250      7245      7248      7251
      7249      7248      7250      7249      7248      7251      7250      7248      7251
      7248      7251      7252      7248      7251      7253      7248      7251      7254
      7252      7251      7253      7252      7251      7254      7253      7251      7254
      7251      7254      7255      7251      7254      7256      7251      7254      7257
      7255      7254      7256      7255      7254      7257      7256      7254      7257
      7254      7257      7258      7254      7257      7259      7254      7257      7260
      7258      7257      7259      7258      7257      7260      7259      7257      7260
      7257      7260      7261      7257      7260      7262      7257      7260      7263
      7261      7260      7262      7261      7260      7263      7262      7260      7263
      7260      7263      7264      7260      7263      7265      7260      7263      7266
      7264      7263      7265      7264      7263      7266      7265      7263      7266
      7263      7266      7267      7263      7266      7268      7263      7266      7269
      7267      7266      7268      7267      7266      7269      7268      7266      7269
      7266      7269      7270      7266      7269      7271      7266      7269      7272
      7270      7269      7271      7270      7269      7272      7271      7269      7272
      7269      7272      7273      7269      7272      7274      7269      7272      7275
      7273      7272      7274      7273      7272      7275      7274      7272      7275
      7272      7275      7276      7272      7275      7277      7272      7275      7278
      7276      7275      7277      7276      7275      7278      7277      7275      7278
      7280      7279      7281      7280      7279      7282      7280      7279      7283
      7281      7279      7282      7281      7279      7283      7282      7279      7283
      7279      7283      7284      7279      7283      7285      7279      7283      7288
      7284      7283      7285      7284      7283      7288      7285      7283      7288
      7283      7285      7286      7283      7285      7287      7286      7285      7287
      7283      7288      7289      7283      7288      7290      7283      7288      7294
      7289      7288      7290      7289      7288      7294      7290      7288      7294
      7292      7291      7293      7292      7291      7294      7292      7291      7295
      7293      7291      7294      7293      7291      7295      7294      7291      7295
      7288      7294      7291      7291      7295      7296      7295      7296      7297
      7295      7296      7298      7295      7296      7299      7297      7296      7298
      7297      7296      7299      7298      7296      7299      7296      7299      7300
      7296      7299      7301      7296      7299      7307      7300      7299      7301
      7300      7299      7307      7301      7299      7307      7299      7301      7302
      7301      7302      7303      7301      7302      7304      7303      7302      7304
      7302      7304      7305      7302      7304      7306      7302      7304      7316
      7305      7304      7306      7305      7304      7316      7306      7304      7316
      7299      7307      7308      7299      7307      7309      7299      7307      7310
      7308      7307      7309      7308      7307      7310      7309      7307      7310
      7307      7310      7311      7310      7311      7312      7310      7311      7313
      7312      7311      7313      7311      7313      7314      7311      7313      7315
      7311      7313      7363      7314      7313      7315      7314      7313      7363
      7315      7313      7363      7304      7316      7317      7304      7316      7318
      7304      7316      7319      7317      7316      7318      7317      7316      7319
      7318      7316      7319      7316      7319      7320      7316      7319      7321
      7316      7319      7322      7320      7319      7321      7320      7319      7322
      7321      7319      7322      7319      7322      7323      7319      7322      7324
      7319      7322      7325      7323      7322      7324      7323      7322      7325
      7324      7322      7325      7322      7325      7326      7322      7325      7327
      7322      7325      7328      7326      7325      7327      7326      7325      7328
      7327      7325      7328      7325      7328      7329      7325      7328      7330
      7325      7328      7331      7329      7328      7330      7329      7328      7331
      7330      7328      7331      7328      7331      7332      7328      7331      7333
      7328      7331      7334      7332      7331      7333      7332      7331      7334
      7333      7331      7334      7331      7334      7335      7331      7334      7336
      7335      7334      7336      7334      7336      7337      7334      7336      7338
      7337      7336      7338      7336      7338      7339      7336      7338      7340
      7336      7338      7341      7339      7338      7340      7339      7338      7341
      7340      7338      7341      7338      7341      7342      7338      7341      7343
      7338      7341      7344      7342      7341      7343      7342      7341      7344
      7343      7341      7344      7341      7344      7345      7341      7344      7346
      7341      7344      7347      7345      7344      7346      7345      7344      7347
      7346      7344      7347      7344      7347      7348      7344      7347      7349
      7344      7347      7350      7348      7347      7349      7348      7347      7350
      7349      7347      7350      7347      7350      7351      7347      7350      7352
      7347      7350      7353      7351      7350      7352      7351      7350      7353
      7352      7350      7353      7350      7353      7354      7350      7353      7355
      7350      7353      7356      7354      7353      7355      7354      7353      7356
      7355      7353      7356      7353      7356      7357      7353      7356      7358
      7353      7356      7359      7357      7356      7358      7357      7356      7359
      7358      7356      7359      7356      7359      7360      7356      7359      7361
      7356      7359      7362      7360      7359      7361      7360      7359      7362
      7361      7359      7362      7313      7363      7364      7313      7363      7365
      7313      7363      7366      7364      7363      7365      7364      7363      7366
      7365      7363      7366      7363      7366      7367      7363      7366      7368
      7363      7366      7369      7367      7366      7368      7367      7366      7369
      7368      7366      7369      7366      7369      7370      7366      7369      7371
      7366      7369      7372      7370      7369      7371      7370      7369      7372
      7371      7369      7372      7369      7372      7373      7369      7372      7374
      7369      7372      7375      7373      7372      7374      7373      7372      7375
      7374      7372      7375      7372      7375      7376      7372      7375      7377
      7372      7375      7378      7376      7375      7377      7376      7375      7378
      7377      7375      7378      7375      7378      7379      7375      7378      7380
      7375      7378      7381      7379      7378      7380      7379      7378      7381
      7380      7378      7381      7378      7381      7382      7378      7381      7383
      7378      7381      7384      7382      7381      7383      7382      7381      7384
      7383      7381      7384      7381      7384      7385      7381      7384      7386
      7381      7384      7387      7385      7384      7386      7385      7384      7387
      7386      7384      7387      7384      7387      7388      7384      7387      7389
      7384      7387      7390      7388      7387      7389      7388      7387      7390
      7389      7387      7390      7387      7390      7391      7387      7390      7392
      7387      7390      7393      7391      7390      7392      7391      7390      7393
      7392      7390      7393      7390      7393      7394      7390      7393      7395
      7390      7393      7396      7394      7393      7395      7394      7393      7396
      7395      7393      7396      7393      7396      7397      7393      7396      7398
      7393      7396      7399      7397      7396      7398      7397      7396      7399
      7398      7396      7399      7396      7399      7400      7396      7399      7401
      7396      7399      7402      7400      7399      7401      7400      7399      7402
      7401      7399      7402      7399      7402      7403      7399      7402      7404
      7399      7402      7405      7403      7402      7404      7403      7402      7405
      7404      7402      7405      7407      7406      7410      7407      7406      7414
      7407      7406      7418      7410      7406      7414      7410      7406      7418
      7414      7406      7418      7406      7407      7408      7406      7407      7409
      7406      7407      7422      7408      7407      7409      7408      7407      7422
      7409      7407      7422      7406      7410      7411      7406      7410      7412
      7406      7410      7413      7411      7410      7412      7411      7410      7413
      7412      7410      7413      7406      7414      7415      7406      7414      7416
      7406      7414      7417      7415      7414      7416      7415      7414      7417
      7416      7414      7417      7406      7418      7419      7406      7418      7420
      7406      7418      7421      7419      7418      7420      7419      7418      7421
      7420      7418      7421      7407      7422      7423      7407      7422      7424
      7407      7422      7428      7423      7422      7424      7423      7422      7428
      7424      7422      7428      7426      7425      7427      7426      7425      7428
      7426      7425      7429      7427      7425      7428      7427      7425      7429
      7428      7425      7429      7422      7428      7425      7425      7429      7430
      7429      7430      7431      7429      7430      7432      7429      7430      7433
      7431      7430      7432      7431      7430      7433      7432      7430      7433
      7430      7433      7434      7430      7433      7435      7430      7433      7441
      7434      7433      7435      7434      7433      7441      7435      7433      7441
      7433      7435      7436      7435      7436      7437      7435      7436      7438
      7437      7436      7438      7436      7438      7439      7436      7438      7440
      7436      7438      7450      7439      7438      7440      7439      7438      7450
      7440      7438      7450      7433      7441      7442      7433      7441      7443
      7433      7441      7444      7442      7441      7443      7442      7441      7444
      7443      7441      7444      7441      7444      7445      7444      7445      7446
      7444      7445      7447      7446      7445      7447      7445      7447      7448
      7445      7447      7449      7445      7447      7497      7448      7447      7449
      7448      7447      7497      7449      7447      7497      7438      7450      7451
      7438      7450      7452      7438      7450      7453      7451      7450      7452
      7451      7450      7453      7452      7450      7453      7450      7453      7454
      7450      7453      7455      7450      7453      7456      7454      7453      7455
      7454      7453      7456      7455      7453      7456      7453      7456      7457
      7453      7456      7458      7453      7456      7459      7457      7456      7458
      7457      7456      7459      7458      7456      7459      7456      7459      7460
      7456      7459      7461      7456      7459      7462      7460      7459      7461
      7460      7459      7462      7461      7459      7462      7459      7462      7463
      7459      7462      7464      7459      7462      7465      7463      7462      7464
      7463      7462      7465      7464      7462      7465      7462      7465      7466
      7462      7465      7467      7462      7465      7468      7466      7465      7467
      7466      7465      7468      7467      7465      7468      7465      7468      7469
      7465      7468      7470      7469      7468      7470      7468      7470      7471
      7468      7470      7472      7471      7470      7472      7470      7472      7473
      7470      7472      7474      7470      7472      7475      7473      7472      7474
      7473      7472      7475      7474      7472      7475      7472      7475      7476
      7472      7475      7477      7472      7475      7478      7476      7475      7477
      7476      7475      7478      7477      7475      7478      7475      7478      7479
      7475      7478      7480      7475      7478      7481      7479      7478      7480
      7479      7478      7481      7480      7478      7481      7478      7481      7482
      7478      7481      7483      7478      7481      7484      7482      7481      7483
      7482      7481      7484      7483      7481      7484      7481      7484      7485
      7481      7484      7486      7481      7484      7487      7485      7484      7486
      7485      7484      7487      7486      7484      7487      7484      7487      7488
      7484      7487      7489      7484      7487      7490      7488      7487      7489
      7488      7487      7490      7489      7487      7490      7487      7490      7491
      7487      7490      7492      7487      7490      7493      7491      7490      7492
      7491      7490      7493      7492      7490      7493      7490      7493      7494
      7490      7493      7495      7490      7493      7496      7494      7493      7495
      7494      7493      7496      7495      7493      7496      7447      7497      7498
      7447      7497      7499      7447      7497      7500      7498      7497      7499
      7498      7497      7500      7499      7497      7500      7497      7500      7501
      7497      7500      7502      7497      7500      7503      7501      7500      7502
      7501      7500      7503      7502      7500      7503      7500      7503      7504
      7500      7503      7505      7500      7503      7506      7504      7503      7505
      7504      7503      7506      7505      7503      7506      7503      7506      7507
      7503      7506      7508      7503      7506      7509      7507      7506      7508
      7507      7506      7509      7508      7506      7509      7506      7509      7510
      7506      7509      7511      7506      7509      7512      7510      7509      7511
      7510      7509      7512      7511      7509      7512      7509      7512      7513
      7509      7512      7514      7509      7512      7515      7513      7512      7514
      7513      7512      7515      7514      7512      7515      7512      7515      7516
      7512      7515      7517      7512      7515      7518      7516      7515      7517
      7516      7515      7518      7517      7515      7518      7515      7518      7519
      7515      7518      7520      7515      7518      7521      7519      7518      7520
      7519      7518      7521      7520      7518      7521      7518      7521      7522
      7518      7521      7523      7518      7521      7524      7522      7521      7523
      7522      7521      7524      7523      7521      7524      7521      7524      7525
      7521      7524      7526      7521      7524      7527      7525      7524      7526
      7525      7524      7527      7526      7524      7527      7524      7527      7528
      7524      7527      7529      7524      7527      7530      7528      7527      7529
      7528      7527      7530      7529      7527      7530      7527      7530      7531
      7527      7530      7532      7527      7530      7533      7531      7530      7532
      7531      7530      7533      7532      7530      7533      7530      7533      7534
      7530      7533      7535      7530      7533      7536      7534      7533      7535
      7534      7533      7536      7535      7533      7536      7533      7536      7537
      7533      7536      7538      7533      7536      7539      7537      7536      7538
      7537      7536      7539      7538      7536      7539      7541      7540      7544
      7541      7540      7548      7541      7540      7552      7544      7540      7548
      7544      7540      7552      7548      7540      7552      7540      7541      7542
      7540      7541      7543      7540      7541      7556      7542      7541      7543
      7542      7541      7556      7543      7541      7556      7540      7544      7545
      7540      7544      7546      7540      7544      7547      7545      7544      7546
      7545      7544      7547      7546      7544      7547      7540      7548      7549
      7540      7548      7550      7540      7548      7551      7549      7548      7550
      7549      7548      7551      7550      7548      7551      7540      7552      7553
      7540      7552      7554      7540      7552      7555      7553      7552      7554
      7553      7552      7555      7554      7552      7555      7541      7556      7557
      7541      7556      7558      7541      7556      7562      7557      7556      7558
      7557      7556      7562      7558      7556      7562      7560      7559      7561
      7560      7559      7562      7560      7559      7563      7561      7559      7562
      7561      7559      7563      7562      7559      7563      7556      7562      7559
      7559      7563      7564      7563      7564      7565      7563      7564      7566
      7563      7564      7567      7565      7564      7566      7565      7564      7567
      7566      7564      7567      7564      7567      7568      7564      7567      7569
      7564      7567      7575      7568      7567      7569      7568      7567      7575
      7569      7567      7575      7567      7569      7570      7569      7570      7571
      7569      7570      7572      7571      7570      7572      7570      7572      7573
      7570      7572      7574      7570      7572      7584      7573      7572      7574
      7573      7572      7584      7574      7572      7584      7567      7575      7576
      7567      7575      7577      7567      7575      7578      7576      7575      7577
      7576      7575      7578      7577      7575      7578      7575      7578      7579
      7578      7579      7580      7578      7579      7581      7580      7579      7581
      7579      7581      7582      7579      7581      7583      7579      7581      7631
      7582      7581      7583      7582      7581      7631      7583      7581      7631
      7572      7584      7585      7572      7584      7586      7572      7584      7587
      7585      7584      7586      7585      7584      7587      7586      7584      7587
      7584      7587      7588      7584      7587      7589      7584      7587      7590
      7588      7587      7589      7588      7587      7590      7589      7587      7590
      7587      7590      7591      7587      7590      7592      7587      7590      7593
      7591      7590      7592      7591      7590      7593      7592      7590      7593
      7590      7593      7594      7590      7593      7595      7590      7593      7596
      7594      7593      7595      7594      7593      7596      7595      7593      7596
      7593      7596      7597      7593      7596      7598      7593      7596      7599
      7597      7596      7598      7597      7596      7599      7598      7596      7599
      7596      7599      7600      7596      7599      7601      7596      7599      7602
      7600      7599      7601      7600      7599      7602      7601      7599      7602
      7599      7602      7603      7599      7602      7604      7603      7602      7604
      7602      7604      7605      7602      7604      7606      7605      7604      7606
      7604      7606      7607      7604      7606      7608      7604      7606      7609
      7607      7606      7608      7607      7606      7609      7608      7606      7609
      7606      7609      7610      7606      7609      7611      7606      7609      7612
      7610      7609      7611      7610      7609      7612      7611      7609      7612
      7609      7612      7613      7609      7612      7614      7609      7612      7615
      7613      7612      7614      7613      7612      7615      7614      7612      7615
      7612      7615      7616      7612      7615      7617      7612      7615      7618
      7616      7615      7617      7616      7615      7618      7617      7615      7618
      7615      7618      7619      7615      7618      7620      7615      7618      7621
      7619      7618      7620      7619      7618      7621      7620      7618      7621
      7618      7621      7622      7618      7621      7623      7618      7621      7624
      7622      7621      7623      7622      7621      7624      7623      7621      7624
      7621      7624      7625      7621      7624      7626      7621      7624      7627
      7625      7624      7626      7625      7624      7627      7626      7624      7627
      7624      7627      7628      7624      7627      7629      7624      7627      7630
      7628      7627      7629      7628      7627      7630      7629      7627      7630
      7581      7631      7632      7581      7631      7633      7581      7631      7634
      7632      7631      7633      7632      7631      7634      7633      7631      7634
      7631      7634      7635      7631      7634      7636      7631      7634      7637
      7635      7634      7636      7635      7634      7637      7636      7634      7637
      7634      7637      7638      7634      7637      7639      7634      7637      7640
      7638      7637      7639      7638      7637      7640      7639      7637      7640
      7637      7640      7641      7637      7640      7642      7637      7640      7643
      7641      7640      7642      7641      7640      7643      7642      7640      7643
      7640      7643      7644      7640      7643      7645      7640      7643      7646
      7644      7643      7645      7644      7643      7646      7645      7643      7646
      7643      7646      7647      7643      7646      7648      7643      7646      7649
      7647      7646      7648      7647      7646      7649      7648      7646      7649
      7646      7649      7650      7646      7649      7651      7646      7649      7652
      7650      7649      7651      7650      7649      7652      7651      7649      7652
      7649      7652      7653      7649      7652      7654      7649      7652      7655
      7653      7652      7654      7653      7652      7655      7654      7652      7655
      7652      7655      7656      7652      7655      7657      7652      7655      7658
      7656      7655      7657      7656      7655      7658      7657      7655      7658
      7655      7658      7659      7655      7658      7660      7655      7658      7661
      7659      7658      7660      7659      7658      7661      7660      7658      7661
      7658      7661      7662      7658      7661      7663      7658      7661      7664
      7662      7661      7663      7662      7661      7664      7663      7661      7664
      7661      7664      7665      7661      7664      7666      7661      7664      7667
      7665      7664      7666      7665      7664      7667      7666      7664      7667
      7664      7667      7668      7664      7667      7669      7664      7667      7670
      7668      7667      7669      7668      7667      7670      7669      7667      7670
      7667      7670      7671      7667      7670      7672      7667      7670      7673
      7671      7670      7672      7671      7670      7673      7672      7670      7673
      7675      7674      7676      7675      7674      7677      7675      7674      7678
      7676      7674      7677      7676      7674      7678      7677      7674      7678
      7674      7678      7679      7674      7678      7680      7674      7678      7683
      7679      7678      7680      7679      7678      7683      7680      7678      7683
      7678      7680      7681      7678      7680      7682      7681      7680      7682
      7678      7683      7684      7678      7683      7685      7678      7683      7689
      7684      7683      7685      7684      7683      7689      7685      7683      7689
      7687      7686      7688      7687      7686      7689      7687      7686      7690
      7688      7686      7689      7688      7686      7690      7689      7686      7690
      7683      7689      7686      7686      7690      7691      7690      7691      7692
      7690      7691      7693      7690      7691      7694      7692      7691      7693
      7692      7691      7694      7693      7691      7694      7691      7694      7695
      7691      7694      7696      7691      7694      7702      7695      7694      7696
      7695      7694      7702      7696      7694      7702      7694      7696      7697
      7696      7697      7698      7696      7697      7699      7698      7697      7699
      7697      7699      7700      7697      7699      7701      7697      7699      7711
      7700      7699      7701      7700      7699      7711      7701      7699      7711
      7694      7702      7703      7694      7702      7704      7694      7702      7705
      7703      7702      7704      7703      7702      7705      7704      7702      7705
      7702      7705      7706      7705      7706      7707      7705      7706      7708
      7707      7706      7708      7706      7708      7709      7706      7708      7710
      7706      7708      7758      7709      7708      7710      7709      7708      7758
      7710      7708      7758      7699      7711      7712      7699      7711      7713
      7699      7711      7714      7712      7711      7713      7712      7711      7714
      7713      7711      7714      7711      7714      7715      7711      7714      7716
      7711      7714      7717      7715      7714      7716      7715      7714      7717
      7716      7714      7717      7714      7717      7718      7714      7717      7719
      7714      7717      7720      7718      7717      7719      7718      7717      7720
      7719      7717      7720      7717      7720      7721      7717      7720      7722
      7717      7720      7723      7721      7720      7722      7721      7720      7723
      7722      7720      7723      7720      7723      7724      7720      7723      7725
      7720      7723      7726      7724      7723      7725      7724      7723      7726
      7725      7723      7726      7723      7726      7727      7723      7726      7728
      7723      7726      7729      7727      7726      7728      7727      7726      7729
      7728      7726      7729      7726      7729      7730      7726      7729      7731
      7730      7729      7731      7729      7731      7732      7729      7731      7733
      7732      7731      7733      7731      7733      7734      7731      7733      7735
      7731      7733      7736      7734      7733      7735      7734      7733      7736
      7735      7733      7736      7733      7736      7737      7733      7736      7738
      7733      7736      7739      7737      7736      7738      7737      7736      7739
      7738      7736      7739      7736      7739      7740      7736      7739      7741
      7736      7739      7742      7740      7739      7741      7740      7739      7742
      7741      7739      7742      7739      7742      7743      7739      7742      7744
      7739      7742      7745      7743      7742      7744      7743      7742      7745
      7744      7742      7745      7742      7745      7746      7742      7745      7747
      7742      7745      7748      7746      7745      7747      7746      7745      7748
      7747      7745      7748      7745      7748      7749      7745      7748      7750
      7745      7748      7751      7749      7748      7750      7749      7748      7751
      7750      7748      7751      7748      7751      7752      7748      7751      7753
      7748      7751      7754      7752      7751      7753      7752      7751      7754
      7753      7751      7754      7751      7754      7755      7751      7754      7756
      7751      7754      7757      7755      7754      7756      7755      7754      7757
      7756      7754      7757      7708      7758      7759      7708      7758      7760
      7708      7758      7761      7759      7758      7760      7759      7758      7761
      7760      7758      7761      7758      7761      7762      7758      7761      7763
      7758      7761      7764      7762      7761      7763      7762      7761      7764
      7763      7761      7764      7761      7764      7765      7761      7764      7766
      7761      7764      7767      7765      7764      7766      7765      7764      7767
      7766      7764      7767      7764      7767      7768      7764      7767      7769
      7764      7767      7770      7768      7767      7769      7768      7767      7770
      7769      7767      7770      7767      7770      7771      7767      7770      7772
      7767      7770      7773      7771      7770      7772      7771      7770      7773
      7772      7770      7773      7770      7773      7774      7770      7773      7775
      7770      7773      7776      7774      7773      7775      7774      7773      7776
      7775      7773      7776      7773      7776      7777      7773      7776      7778
      7773      7776      7779      7777      7776      7778      7777      7776      7779
      7778      7776      7779      7776      7779      7780      7776      7779      7781
      7776      7779      7782      7780      7779      7781      7780      7779      7782
      7781      7779      7782      7779      7782      7783      7779      7782      7784
      7779      7782      7785      7783      7782      7784      7783      7782      7785
      7784      7782      7785      7782      7785      7786      7782      7785      7787
      7782      7785      7788      7786      7785      7787      7786      7785      7788
      7787      7785      7788      7785      7788      7789      7785      7788      7790
      7785      7788      7791      7789      7788      7790      7789      7788      7791
      7790      7788      7791      7788      7791      7792      7788      7791      7793
      7788      7791      7794      7792      7791      7793      7792      7791      7794
      7793      7791      7794      7791      7794      7795      7791      7794      7796
      7791      7794      7797      7795      7794      7796      7795      7794      7797
      7796      7794      7797      7794      7797      7798      7794      7797      7799
      7794      7797      7800      7798      7797      7799      7798      7797      7800
      7799      7797      7800      7802      7801      7805      7802      7801      7809
      7802      7801      7813      7805      7801      7809      7805      7801      7813
      7809      7801      7813      7801      7802      7803      7801      7802      7804
      7801      7802      7817      7803      7802      7804      7803      7802      7817
      7804      7802      7817      7801      7805      7806      7801      7805      7807
      7801      7805      7808      7806      7805      7807      7806      7805      7808
      7807      7805      7808      7801      7809      7810      7801      7809      7811
      7801      7809      7812      7810      7809      7811      7810      7809      7812
      7811      7809      7812      7801      7813      7814      7801      7813      7815
      7801      7813      7816      7814      7813      7815      7814      7813      7816
      7815      7813      7816      7802      7817      7818      7802      7817      7819
      7802      7817      7823      7818      7817      7819      7818      7817      7823
      7819      7817      7823      7821      7820      7822      7821      7820      7823
      7821      7820      7824      7822      7820      7823      7822      7820      7824
      7823      7820      7824      7817      7823      7820      7820      7824      7825
      7824      7825      7826      7824      7825      7827      7824      7825      7828
      7826      7825      7827      7826      7825      7828      7827      7825      7828
      7825      7828      7829      7825      7828      7830      7825      7828      7836
      7829      7828      7830      7829      7828      7836      7830      7828      7836
      7828      7830      7831      7830      7831      7832      7830      7831      7833
      7832      7831      7833      7831      7833      7834      7831      7833      7835
      7831      7833      7845      7834      7833      7835      7834      7833      7845
      7835      7833      7845      7828      7836      7837      7828      7836      7838
      7828      7836      7839      7837      7836      7838      7837      7836      7839
      7838      7836      7839      7836      7839      7840      7839      7840      7841
      7839      7840      7842      7841      7840      7842      7840      7842      7843
      7840      7842      7844      7840      7842      7892      7843      7842      7844
      7843      7842      7892      7844      7842      7892      7833      7845      7846
      7833      7845      7847      7833      7845      7848      7846      7845      7847
      7846      7845      7848      7847      7845      7848      7845      7848      7849
      7845      7848      7850      7845      7848      7851      7849      7848      7850
      7849      7848      7851      7850      7848      7851      7848      7851      7852
      7848      7851      7853      7848      7851      7854      7852      7851      7853
      7852      7851      7854      7853      7851      7854      7851      7854      7855
      7851      7854      7856      7851      7854      7857      7855      7854      7856
      7855      7854      7857      7856      7854      7857      7854      7857      7858
      7854      7857      7859      7854      7857      7860      7858      7857      7859
      7858      7857      7860      7859      7857      7860      7857      7860      7861
      7857      7860      7862      7857      7860      7863      7861      7860      7862
      7861      7860      7863      7862      7860      7863      7860      7863      7864
      7860      7863      7865      7864      7863      7865      7863      7865      7866
      7863      7865      7867      7866      7865      7867      7865      7867      7868
      7865      7867      7869      7865      7867      7870      7868      7867      7869
      7868      7867      7870      7869      7867      7870      7867      7870      7871
      7867      7870      7872      7867      7870      7873      7871      7870      7872
      7871      7870      7873      7872      7870      7873      7870      7873      7874
      7870      7873      7875      7870      7873      7876      7874      7873      7875
      7874      7873      7876      7875      7873      7876      7873      7876      7877
      7873      7876      7878      7873      7876      7879      7877      7876      7878
      7877      7876      7879      7878      7876      7879      7876      7879      7880
      7876      7879      7881      7876      7879      7882      7880      7879      7881
      7880      7879      7882      7881      7879      7882      7879      7882      7883
      7879      7882      7884      7879      7882      7885      7883      7882      7884
      7883      7882      7885      7884      7882      7885      7882      7885      7886
      7882      7885      7887      7882      7885      7888      7886      7885      7887
      7886      7885      7888      7887      7885      7888      7885      7888      7889
      7885      7888      7890      7885      7888      7891      7889      7888      7890
      7889      7888      7891      7890      7888      7891      7842      7892      7893
      7842      7892      7894      7842      7892      7895      7893      7892      7894
      7893      7892      7895      7894      7892      7895      7892      7895      7896
      7892      7895      7897      7892      7895      7898      7896      7895      7897
      7896      7895      7898      7897      7895      7898      7895      7898      7899
      7895      7898      7900      7895      7898      7901      7899      7898      7900
      7899      7898      7901      7900      7898      7901      7898      7901      7902
      7898      7901      7903      7898      7901      7904      7902      7901      7903
      7902      7901      7904      7903      7901      7904      7901      7904      7905
      7901      7904      7906      7901      7904      7907      7905      7904      7906
      7905      7904      7907      7906      7904      7907      7904      7907      7908
      7904      7907      7909      7904      7907      7910      7908      7907      7909
      7908      7907      7910      7909      7907      7910      7907      7910      7911
      7907      7910      7912      7907      7910      7913      7911      7910      7912
      7911      7910      7913      7912      7910      7913      7910      7913      7914
      7910      7913      7915      7910      7913      7916      7914      7913      7915
      7914      7913      7916      7915      7913      7916      7913      7916      7917
      7913      7916      7918      7913      7916      7919      7917      7916      7918
      7917      7916      7919      7918      7916      7919      7916      7919      7920
      7916      7919      7921      7916      7919      7922      7920      7919      7921
      7920      7919      7922      7921      7919      7922      7919      7922      7923
      7919      7922      7924      7919      7922      7925      7923      7922      7924
      7923      7922      7925      7924      7922      7925      7922      7925      7926
      7922      7925      7927      7922      7925      7928      7926      7925      7927
      7926      7925      7928      7927      7925      7928      7925      7928      7929
      7925      7928      7930      7925      7928      7931      7929      7928      7930
      7929      7928      7931      7930      7928      7931      7928      7931      7932
      7928      7931      7933      7928      7931      7934      7932      7931      7933
      7932      7931      7934      7933      7931      7934      7936      7935      7939
      7936      7935      7943      7936      7935      7947      7939      7935      7943
      7939      7935      7947      7943      7935      7947      7935      7936      7937
      7935      7936      7938      7935      7936      7951      7937      7936      7938
      7937      7936      7951      7938      7936      7951      7935      7939      7940
      7935      7939      7941      7935      7939      7942      7940      7939      7941
      7940      7939      7942      7941      7939      7942      7935      7943      7944
      7935      7943      7945      7935      7943      7946      7944      7943      7945
      7944      7943      7946      7945      7943      7946      7935      7947      7948
      7935      7947      7949      7935      7947      7950      7948      7947      7949
      7948      7947      7950      7949      7947      7950      7936      7951      7952
      7936      7951      7953      7936      7951      7957      7952      7951      7953
      7952      7951      7957      7953      7951      7957      7955      7954      7956
      7955      7954      7957      7955      7954      7958      7956      7954      7957
      7956      7954      7958      7957      7954      7958      7951      7957      7954
      7954      7958      7959      7958      7959      7960      7958      7959      7961
      7958      7959      7962      7960      7959      7961      7960      7959      7962
      7961      7959      7962      7959      7962      7963      7959      7962      7964
      7959      7962      7970      7963      7962      7964      7963      7962      7970
      7964      7962      7970      7962      7964      7965      7964      7965      7966
      7964      7965      7967      7966      7965      7967      7965      7967      7968
      7965      7967      7969      7965      7967      7979      7968      7967      7969
      7968      7967      7979      7969      7967      7979      7962      7970      7971
      7962      7970      7972      7962      7970      7973      7971      7970      7972
      7971      7970      7973      7972      7970      7973      7970      7973      7974
      7973      7974      7975      7973      7974      7976      7975      7974      7976
      7974      7976      7977      7974      7976      7978      7974      7976      8026
      7977      7976      7978      7977      7976      8026      7978      7976      8026
      7967      7979      7980      7967      7979      7981      7967      7979      7982
      7980      7979      7981      7980      7979      7982      7981      7979      7982
      7979      7982      7983      7979      7982      7984      7979      7982      7985
      7983      7982      7984      7983      7982      7985      7984      7982      7985
      7982      7985      7986      7982      7985      7987      7982      7985      7988
      7986      7985      7987      7986      7985      7988      7987      7985      7988
      7985      7988      7989      7985      7988      7990      7985      7988      7991
      7989      7988      7990      7989      7988      7991      7990      7988      7991
      7988      7991      7992      7988      7991      7993      7988      7991      7994
      7992      7991      7993      7992      7991      7994      7993      7991      7994
      7991      7994      7995      7991      7994      7996      7991      7994      7997
      7995      7994      7996      7995      7994      7997      7996      7994      7997
      7994      7997      7998      7994      7997      7999      7998      7997      7999
      7997      7999      8000      7997      7999      8001      8000      7999      8001
      7999      8001      8002      7999      8001      8003      7999      8001      8004
      8002      8001      8003      8002      8001      8004      8003      8001      8004
      8001      8004      8005      8001      8004      8006      8001      8004      8007
      8005      8004      8006      8005      8004      8007      8006      8004      8007
      8004      8007      8008      8004      8007      8009      8004      8007      8010
      8008      8007      8009      8008      8007      8010      8009      8007      8010
      8007      8010      8011      8007      8010      8012      8007      8010      8013
      8011      8010      8012      8011      8010      8013      8012      8010      8013
      8010      8013      8014      8010      8013      8015      8010      8013      8016
      8014      8013      8015      8014      8013      8016      8015      8013      8016
      8013      8016      8017      8013      8016      8018      8013      8016      8019
      8017      8016      8018      8017      8016      8019      8018      8016      8019
      8016      8019      8020      8016      8019      8021      8016      8019      8022
      8020      8019      8021      8020      8019      8022      8021      8019      8022
      8019      8022      8023      8019      8022      8024      8019      8022      8025
      8023      8022      8024      8023      8022      8025      8024      8022      8025
      7976      8026      8027      7976      8026      8028      7976      8026      8029
      8027      8026      8028      8027      8026      8029      8028      8026      8029
      8026      8029      8030      8026      8029      8031      8026      8029      8032
      8030      8029      8031      8030      8029      8032      8031      8029      8032
      8029      8032      8033      8029      8032      8034      8029      8032      8035
      8033      8032      8034      8033      8032      8035      8034      8032      8035
      8032      8035      8036      8032      8035      8037      8032      8035      8038
      8036      8035      8037      8036      8035      8038      8037      8035      8038
      8035      8038      8039      8035      8038      8040      8035      8038      8041
      8039      8038      8040      8039      8038      8041      8040      8038      8041
      8038      8041      8042      8038      8041      8043      8038      8041      8044
      8042      8041      8043      8042      8041      8044      8043      8041      8044
      8041      8044      8045      8041      8044      8046      8041      8044      8047
      8045      8044      8046      8045      8044      8047      8046      8044      8047
      8044      8047      8048      8044      8047      8049      8044      8047      8050
      8048      8047      8049      8048      8047      8050      8049      8047      8050
      8047      8050      8051      8047      8050      8052      8047      8050      8053
      8051      8050      8052      8051      8050      8053      8052      8050      8053
      8050      8053      8054      8050      8053      8055      8050      8053      8056
      8054      8053      8055      8054      8053      8056      8055      8053      8056
      8053      8056      8057      8053      8056      8058      8053      8056      8059
      8057      8056      8058      8057      8056      8059      8058      8056      8059
      8056      8059      8060      8056      8059      8061      8056      8059      8062
      8060      8059      8061      8060      8059      8062      8061      8059      8062
      8059      8062      8063      8059      8062      8064      8059      8062      8065
      8063      8062      8064      8063      8062      8065      8064      8062      8065
      8062      8065      8066      8062      8065      8067      8062      8065      8068
      8066      8065      8067      8066      8065      8068      8067      8065      8068
      8070      8069      8073      8070      8069      8077      8070      8069      8081
      8073      8069      8077      8073      8069      8081      8077      8069      8081
      8069      8070      8071      8069      8070      8072      8069      8070      8085
      8071      8070      8072      8071      8070      8085      8072      8070      8085
      8069      8073      8074      8069      8073      8075      8069      8073      8076
      8074      8073      8075      8074      8073      8076      8075      8073      8076
      8069      8077      8078      8069      8077      8079      8069      8077      8080
      8078      8077      8079      8078      8077      8080      8079      8077      8080
      8069      8081      8082      8069      8081      8083      8069      8081      8084
      8082      8081      8083      8082      8081      8084      8083      8081      8084
      8070      8085      8086      8070      8085      8087      8070      8085      8091
      8086      8085      8087      8086      8085      8091      8087      8085      8091
      8089      8088      8090      8089      8088      8091      8089      8088      8092
      8090      8088      8091      8090      8088      8092      8091      8088      8092
      8085      8091      8088      8088      8092      8093      8092      8093      8094
      8092      8093      8095      8092      8093      8096      8094      8093      8095
      8094      8093      8096      8095      8093      8096      8093      8096      8097
      8093      8096      8098      8093      8096      8104      8097      8096      8098
      8097      8096      8104      8098      8096      8104      8096      8098      8099
      8098      8099      8100      8098      8099      8101      8100      8099      8101
      8099      8101      8102      8099      8101      8103      8099      8101      8113
      8102      8101      8103      8102      8101      8113      8103      8101      8113
      8096      8104      8105      8096      8104      8106      8096      8104      8107
      8105      8104      8106      8105      8104      8107      8106      8104      8107
      8104      8107      8108      8107      8108      8109      8107      8108      8110
      8109      8108      8110      8108      8110      8111      8108      8110      8112
      8108      8110      8160      8111      8110      8112      8111      8110      8160
      8112      8110      8160      8101      8113      8114      8101      8113      8115
      8101      8113      8116      8114      8113      8115      8114      8113      8116
      8115      8113      8116      8113      8116      8117      8113      8116      8118
      8113      8116      8119      8117      8116      8118      8117      8116      8119
      8118      8116      8119      8116      8119      8120      8116      8119      8121
      8116      8119      8122      8120      8119      8121      8120      8119      8122
      8121      8119      8122      8119      8122      8123      8119      8122      8124
      8119      8122      8125      8123      8122      8124      8123      8122      8125
      8124      8122      8125      8122      8125      8126      8122      8125      8127
      8122      8125      8128      8126      8125      8127      8126      8125      8128
      8127      8125      8128      8125      8128      8129      8125      8128      8130
      8125      8128      8131      8129      8128      8130      8129      8128      8131
      8130      8128      8131      8128      8131      8132      8128      8131      8133
      8132      8131      8133      8131      8133      8134      8131      8133      8135
      8134      8133      8135      8133      8135      8136      8133      8135      8137
      8133      8135      8138      8136      8135      8137      8136      8135      8138
      8137      8135      8138      8135      8138      8139      8135      8138      8140
      8135      8138      8141      8139      8138      8140      8139      8138      8141
      8140      8138      8141      8138      8141      8142      8138      8141      8143
      8138      8141      8144      8142      8141      8143      8142      8141      8144
      8143      8141      8144      8141      8144      8145      8141      8144      8146
      8141      8144      8147      8145      8144      8146      8145      8144      8147
      8146      8144      8147      8144      8147      8148      8144      8147      8149
      8144      8147      8150      8148      8147      8149      8148      8147      8150
      8149      8147      8150      8147      8150      8151      8147      8150      8152
      8147      8150      8153      8151      8150      8152      8151      8150      8153
      8152      8150      8153      8150      8153      8154      8150      8153      8155
      8150      8153      8156      8154      8153      8155      8154      8153      8156
      8155      8153      8156      8153      8156      8157      8153      8156      8158
      8153      8156      8159      8157      8156      8158      8157      8156      8159
      8158      8156      8159      8110      8160      8161      8110      8160      8162
      8110      8160      8163      8161      8160      8162      8161      8160      8163
      8162      8160      8163      8160      8163      8164      8160      8163      8165
      8160      8163      8166      8164      8163      8165      8164      8163      8166
      8165      8163      8166      8163      8166      8167      8163      8166      8168
      8163      8166      8169      8167      8166      8168      8167      8166      8169
      8168      8166      8169      8166      8169      8170      8166      8169      8171
      8166      8169      8172      8170      8169      8171      8170      8169      8172
      8171      8169      8172      8169      8172      8173      8169      8172      8174
      8169      8172      8175      8173      8172      8174      8173      8172      8175
      8174      8172      8175      8172      8175      8176      8172      8175      8177
      8172      8175      8178      8176      8175      8177      8176      8175      8178
      8177      8175      8178      8175      8178      8179      8175      8178      8180
      8175      8178      8181      8179      8178      8180      8179      8178      8181
      8180      8178      8181      8178      8181      8182      8178      8181      8183
      8178      8181      8184      8182      8181      8183      8182      8181      8184
      8183      8181      8184      8181      8184      8185      8181      8184      8186
      8181      8184      8187      8185      8184      8186      8185      8184      8187
      8186      8184      8187      8184      8187      8188      8184      8187      8189
      8184      8187      8190      8188      8187      8189      8188      8187      8190
      8189      8187      8190      8187      8190      8191      8187      8190      8192
      8187      8190      8193      8191      8190      8192      8191      8190      8193
      8192      8190      8193      8190      8193      8194      8190      8193      8195
      8190      8193      8196      8194      8193      8195      8194      8193      8196
      8195      8193      8196      8193      8196      8197      8193      8196      8198
      8193      8196      8199      8197      8196      8198      8197      8196      8199
      8198      8196      8199      8196      8199      8200      8196      8199      8201
      8196      8199      8202      8200      8199      8201      8200      8199      8202
      8201      8199      8202      8204      8203      8207      8204      8203      8211
      8204      8203      8215      8207      8203      8211      8207      8203      8215
      8211      8203      8215      8203      8204      8205      8203      8204      8206
      8203      8204      8219      8205      8204      8206      8205      8204      8219
      8206      8204      8219      8203      8207      8208      8203      8207      8209
      8203      8207      8210      8208      8207      8209      8208      8207      8210
      8209      8207      8210      8203      8211      8212      8203      8211      8213
      8203      8211      8214      8212      8211      8213      8212      8211      8214
      8213      8211      8214      8203      8215      8216      8203      8215      8217
      8203      8215      8218      8216      8215      8217      8216      8215      8218
      8217      8215      8218      8204      8219      8220      8204      8219      8221
      8204      8219      8225      8220      8219      8221      8220      8219      8225
      8221      8219      8225      8223      8222      8224      8223      8222      8225
      8223      8222      8226      8224      8222      8225      8224      8222      8226
      8225      8222      8226      8219      8225      8222      8222      8226      8227
      8226      8227      8228      8226      8227      8229      8226      8227      8230
      8228      8227      8229      8228      8227      8230      8229      8227      8230
      8227      8230      8231      8227      8230      8232      8227      8230      8238
      8231      8230      8232      8231      8230      8238      8232      8230      8238
      8230      8232      8233      8232      8233      8234      8232      8233      8235
      8234      8233      8235      8233      8235      8236      8233      8235      8237
      8233      8235      8247      8236      8235      8237      8236      8235      8247
      8237      8235      8247      8230      8238      8239      8230      8238      8240
      8230      8238      8241      8239      8238      8240      8239      8238      8241
      8240      8238      8241      8238      8241      8242      8241      8242      8243
      8241      8242      8244      8243      8242      8244      8242      8244      8245
      8242      8244      8246      8242      8244      8294      8245      8244      8246
      8245      8244      8294      8246      8244      8294      8235      8247      8248
      8235      8247      8249      8235      8247      8250      8248      8247      8249
      8248      8247      8250      8249      8247      8250      8247      8250      8251
      8247      8250      8252      8247      8250      8253      8251      8250      8252
      8251      8250      8253      8252      8250      8253      8250      8253      8254
      8250      8253      8255      8250      8253      8256      8254      8253      8255
      8254      8253      8256      8255      8253      8256      8253      8256      8257
      8253      8256      8258      8253      8256      8259      8257      8256      8258
      8257      8256      8259      8258      8256      8259      8256      8259      8260
      8256      8259      8261      8256      8259      8262      8260      8259      8261
      8260      8259      8262      8261      8259      8262      8259      8262      8263
      8259      8262      8264      8259      8262      8265      8263      8262      8264
      8263      8262      8265      8264      8262      8265      8262      8265      8266
      8262      8265      8267      8266      8265      8267      8265      8267      8268
      8265      8267      8269      8268      8267      8269      8267      8269      8270
      8267      8269      8271      8267      8269      8272      8270      8269      8271
      8270      8269      8272      8271      8269      8272      8269      8272      8273
      8269      8272      8274      8269      8272      8275      8273      8272      8274
      8273      8272      8275      8274      8272      8275      8272      8275      8276
      8272      8275      8277      8272      8275      8278      8276      8275      8277
      8276      8275      8278      8277      8275      8278      8275      8278      8279
      8275      8278      8280      8275      8278      8281      8279      8278      8280
      8279      8278      8281      8280      8278      8281      8278      8281      8282
      8278      8281      8283      8278      8281      8284      8282      8281      8283
      8282      8281      8284      8283      8281      8284      8281      8284      8285
      8281      8284      8286      8281      8284      8287      8285      8284      8286
      8285      8284      8287      8286      8284      8287      8284      8287      8288
      8284      8287      8289      8284      8287      8290      8288      8287      8289
      8288      8287      8290      8289      8287      8290      8287      8290      8291
      8287      8290      8292      8287      8290      8293      8291      8290      8292
      8291      8290      8293      8292      8290      8293      8244      8294      8295
      8244      8294      8296      8244      8294      8297      8295      8294      8296
      8295      8294      8297      8296      8294      8297      8294      8297      8298
      8294      8297      8299      8294      8297      8300      8298      8297      8299
      8298      8297      8300      8299      8297      8300      8297      8300      8301
      8297      8300      8302      8297      8300      8303      8301      8300      8302
      8301      8300      8303      8302      8300      8303      8300      8303      8304
      8300      8303      8305      8300      8303      8306      8304      8303      8305
      8304      8303      8306      8305      8303      8306      8303      8306      8307
      8303      8306      8308      8303      8306      8309      8307      8306      8308
      8307      8306      8309      8308      8306      8309      8306      8309      8310
      8306      8309      8311      8306      8309      8312      8310      8309      8311
      8310      8309      8312      8311      8309      8312      8309      8312      8313
      8309      8312      8314      8309      8312      8315      8313      8312      8314
      8313      8312      8315      8314      8312      8315      8312      8315      8316
      8312      8315      8317      8312      8315      8318      8316      8315      8317
      8316      8315      8318      8317      8315      8318      8315      8318      8319
      8315      8318      8320      8315      8318      8321      8319      8318      8320
      8319      8318      8321      8320      8318      8321      8318      8321      8322
      8318      8321      8323      8318      8321      8324      8322      8321      8323
      8322      8321      8324      8323      8321      8324      8321      8324      8325
      8321      8324      8326      8321      8324      8327      8325      8324      8326
      8325      8324      8327      8326      8324      8327      8324      8327      8328
      8324      8327      8329      8324      8327      8330      8328      8327      8329
      8328      8327      8330      8329      8327      8330      8327      8330      8331
      8327      8330      8332      8327      8330      8333      8331      8330      8332
      8331      8330      8333      8332      8330      8333      8330      8333      8334
      8330      8333      8335      8330      8333      8336      8334      8333      8335
      8334      8333      8336      8335      8333      8336      8338      8337      8341
      8338      8337      8345      8338      8337      8349      8341      8337      8345
      8341      8337      8349      8345      8337      8349      8337      8338      8339
      8337      8338      8340      8337      8338      8353      8339      8338      8340
      8339      8338      8353      8340      8338      8353      8337      8341      8342
      8337      8341      8343      8337      8341      8344      8342      8341      8343
      8342      8341      8344      8343      8341      8344      8337      8345      8346
      8337      8345      8347      8337      8345      8348      8346      8345      8347
      8346      8345      8348      8347      8345      8348      8337      8349      8350
      8337      8349      8351      8337      8349      8352      8350      8349      8351
      8350      8349      8352      8351      8349      8352      8338      8353      8354
      8338      8353      8355      8338      8353      8359      8354      8353      8355
      8354      8353      8359      8355      8353      8359      8357      8356      8358
      8357      8356      8359      8357      8356      8360      8358      8356      8359
      8358      8356      8360      8359      8356      8360      8353      8359      8356
      8356      8360      8361      8360      8361      8362      8360      8361      8363
      8360      8361      8364      8362      8361      8363      8362      8361      8364
      8363      8361      8364      8361      8364      8365      8361      8364      8366
      8361      8364      8372      8365      8364      8366      8365      8364      8372
      8366      8364      8372      8364      8366      8367      8366      8367      8368
      8366      8367      8369      8368      8367      8369      8367      8369      8370
      8367      8369      8371      8367      8369      8381      8370      8369      8371
      8370      8369      8381      8371      8369      8381      8364      8372      8373
      8364      8372      8374      8364      8372      8375      8373      8372      8374
      8373      8372      8375      8374      8372      8375      8372      8375      8376
      8375      8376      8377      8375      8376      8378      8377      8376      8378
      8376      8378      8379      8376      8378      8380      8376      8378      8428
      8379      8378      8380      8379      8378      8428      8380      8378      8428
      8369      8381      8382      8369      8381      8383      8369      8381      8384
      8382      8381      8383      8382      8381      8384      8383      8381      8384
      8381      8384      8385      8381      8384      8386      8381      8384      8387
      8385      8384      8386      8385      8384      8387      8386      8384      8387
      8384      8387      8388      8384      8387      8389      8384      8387      8390
      8388      8387      8389      8388      8387      8390      8389      8387      8390
      8387      8390      8391      8387      8390      8392      8387      8390      8393
      8391      8390      8392      8391      8390      8393      8392      8390      8393
      8390      8393      8394      8390      8393      8395      8390      8393      8396
      8394      8393      8395      8394      8393      8396      8395      8393      8396
      8393      8396      8397      8393      8396      8398      8393      8396      8399
      8397      8396      8398      8397      8396      8399      8398      8396      8399
      8396      8399      8400      8396      8399      8401      8400      8399      8401
      8399      8401      8402      8399      8401      8403      8402      8401      8403
      8401      8403      8404      8401      8403      8405      8401      8403      8406
      8404      8403      8405      8404      8403      8406      8405      8403      8406
      8403      8406      8407      8403      8406      8408      8403      8406      8409
      8407      8406      8408      8407      8406      8409      8408      8406      8409
      8406      8409      8410      8406      8409      8411      8406      8409      8412
      8410      8409      8411      8410      8409      8412      8411      8409      8412
      8409      8412      8413      8409      8412      8414      8409      8412      8415
      8413      8412      8414      8413      8412      8415      8414      8412      8415
      8412      8415      8416      8412      8415      8417      8412      8415      8418
      8416      8415      8417      8416      8415      8418      8417      8415      8418
      8415      8418      8419      8415      8418      8420      8415      8418      8421
      8419      8418      8420      8419      8418      8421      8420      8418      8421
      8418      8421      8422      8418      8421      8423      8418      8421      8424
      8422      8421      8423      8422      8421      8424      8423      8421      8424
      8421      8424      8425      8421      8424      8426      8421      8424      8427
      8425      8424      8426      8425      8424      8427      8426      8424      8427
      8378      8428      8429      8378      8428      8430      8378      8428      8431
      8429      8428      8430      8429      8428      8431      8430      8428      8431
      8428      8431      8432      8428      8431      8433      8428      8431      8434
      8432      8431      8433      8432      8431      8434      8433      8431      8434
      8431      8434      8435      8431      8434      8436      8431      8434      8437
      8435      8434      8436      8435      8434      8437      8436      8434      8437
      8434      8437      8438      8434      8437      8439      8434      8437      8440
      8438      8437      8439      8438      8437      8440      8439      8437      8440
      8437      8440      8441      8437      8440      8442      8437      8440      8443
      8441      8440      8442      8441      8440      8443      8442      8440      8443
      8440      8443      8444      8440      8443      8445      8440      8443      8446
      8444      8443      8445      8444      8443      8446      8445      8443      8446
      8443      8446      8447      8443      8446      8448      8443      8446      8449
      8447      8446      8448      8447      8446      8449      8448      8446      8449
      8446      8449      8450      8446      8449      8451      8446      8449      8452
      8450      8449      8451      8450      8449      8452      8451      8449      8452
      8449      8452      8453      8449      8452      8454      8449      8452      8455
      8453      8452      8454      8453      8452      8455      8454      8452      8455
      8452      8455      8456      8452      8455      8457      8452      8455      8458
      8456      8455      8457      8456      8455      8458      8457      8455      8458
      8455      8458      8459      8455      8458      8460      8455      8458      8461
      8459      8458      8460      8459      8458      8461      8460      8458      8461
      8458      8461      8462      8458      8461      8463      8458      8461      8464
      8462      8461      8463      8462      8461      8464      8463      8461      8464
      8461      8464      8465      8461      8464      8466      8461      8464      8467
      8465      8464      8466      8465      8464      8467      8466      8464      8467
      8464      8467      8468      8464      8467      8469      8464      8467      8470
      8468      8467      8469      8468      8467      8470      8469      8467      8470
      8472      8471      8473      8472      8471      8474      8472      8471      8475
      8473      8471      8474      8473      8471      8475      8474      8471      8475
      8471      8475      8476      8471      8475      8477      8471      8475      8480
      8476      8475      8477      8476      8475      8480      8477      8475      8480
      8475      8477      8478      8475      8477      8479      8478      8477      8479
      8475      8480      8481      8475      8480      8482      8475      8480      8486
      8481      8480      8482      8481      8480      8486      8482      8480      8486
      8484      8483      8485      8484      8483      8486      8484      8483      8487
      8485      8483      8486      8485      8483      8487      8486      8483      8487
      8480      8486      8483      8483      8487      8488      8487      8488      8489
      8487      8488      8490      8487      8488      8491      8489      8488      8490
      8489      8488      8491      8490      8488      8491      8488      8491      8492
      8488      8491      8493      8488      8491      8499      8492      8491      8493
      8492      8491      8499      8493      8491      8499      8491      8493      8494
      8493      8494      8495      8493      8494      8496      8495      8494      8496
      8494      8496      8497      8494      8496      8498      8494      8496      8508
      8497      8496      8498      8497      8496      8508      8498      8496      8508
      8491      8499      8500      8491      8499      8501      8491      8499      8502
      8500      8499      8501      8500      8499      8502      8501      8499      8502
      8499      8502      8503      8502      8503      8504      8502      8503      8505
      8504      8503      8505      8503      8505      8506      8503      8505      8507
      8503      8505      8555      8506      8505      8507      8506      8505      8555
      8507      8505      8555      8496      8508      8509      8496      8508      8510
      8496      8508      8511      8509      8508      8510      8509      8508      8511
      8510      8508      8511      8508      8511      8512      8508      8511      8513
      8508      8511      8514      8512      8511      8513      8512      8511      8514
      8513      8511      8514      8511      8514      8515      8511      8514      8516
      8511      8514      8517      8515      8514      8516      8515      8514      8517
      8516      8514      8517      8514      8517      8518      8514      8517      8519
      8514      8517      8520      8518      8517      8519      8518      8517      8520
      8519      8517      8520      8517      8520      8521      8517      8520      8522
      8517      8520      8523      8521      8520      8522      8521      8520      8523
      8522      8520      8523      8520      8523      8524      8520      8523      8525
      8520      8523      8526      8524      8523      8525      8524      8523      8526
      8525      8523      8526      8523      8526      8527      8523      8526      8528
      8527      8526      8528      8526      8528      8529      8526      8528      8530
      8529      8528      8530      8528      8530      8531      8528      8530      8532
      8528      8530      8533      8531      8530      8532      8531      8530      8533
      8532      8530      8533      8530      8533      8534      8530      8533      8535
      8530      8533      8536      8534      8533      8535      8534      8533      8536
      8535      8533      8536      8533      8536      8537      8533      8536      8538
      8533      8536      8539      8537      8536      8538      8537      8536      8539
      8538      8536      8539      8536      8539      8540      8536      8539      8541
      8536      8539      8542      8540      8539      8541      8540      8539      8542
      8541      8539      8542      8539      8542      8543      8539      8542      8544
      8539      8542      8545      8543      8542      8544      8543      8542      8545
      8544      8542      8545      8542      8545      8546      8542      8545      8547
      8542      8545      8548      8546      8545      8547      8546      8545      8548
      8547      8545      8548      8545      8548      8549      8545      8548      8550
      8545      8548      8551      8549      8548      8550      8549      8548      8551
      8550      8548      8551      8548      8551      8552      8548      8551      8553
      8548      8551      8554      8552      8551      8553      8552      8551      8554
      8553      8551      8554      8505      8555      8556      8505      8555      8557
      8505      8555      8558      8556      8555      8557      8556      8555      8558
      8557      8555      8558      8555      8558      8559      8555      8558      8560
      8555      8558      8561      8559      8558      8560      8559      8558      8561
      8560      8558      8561      8558      8561      8562      8558      8561      8563
      8558      8561      8564      8562      8561      8563      8562      8561      8564
      8563      8561      8564      8561      8564      8565      8561      8564      8566
      8561      8564      8567      8565      8564      8566      8565      8564      8567
      8566      8564      8567      8564      8567      8568      8564      8567      8569
      8564      8567      8570      8568      8567      8569      8568      8567      8570
      8569      8567      8570      8567      8570      8571      8567      8570      8572
      8567      8570      8573      8571      8570      8572      8571      8570      8573
      8572      8570      8573      8570      8573      8574      8570      8573      8575
      8570      8573      8576      8574      8573      8575      8574      8573      8576
      8575      8573      8576      8573      8576      8577      8573      8576      8578
      8573      8576      8579      8577      8576      8578      8577      8576      8579
      8578      8576      8579      8576      8579      8580      8576      8579      8581
      8576      8579      8582      8580      8579      8581      8580      8579      8582
      8581      8579      8582      8579      8582      8583      8579      8582      8584
      8579      8582      8585      8583      8582      8584      8583      8582      8585
      8584      8582      8585      8582      8585      8586      8582      8585      8587
      8582      8585      8588      8586      8585      8587      8586      8585      8588
      8587      8585      8588      8585      8588      8589      8585      8588      8590
      8585      8588      8591      8589      8588      8590      8589      8588      8591
      8590      8588      8591      8588      8591      8592      8588      8591      8593
      8588      8591      8594      8592      8591      8593      8592      8591      8594
      8593      8591      8594      8591      8594      8595      8591      8594      8596
      8591      8594      8597      8595      8594      8596      8595      8594      8597
      8596      8594      8597      8599      8598      8602      8599      8598      8606
      8599      8598      8610      8602      8598      8606      8602      8598      8610
      8606      8598      8610      8598      8599      8600      8598      8599      8601
      8598      8599      8614      8600      8599      8601      8600      8599      8614
      8601      8599      8614      8598      8602      8603      8598      8602      8604
      8598      8602      8605      8603      8602      8604      8603      8602      8605
      8604      8602      8605      8598      8606      8607      8598      8606      8608
      8598      8606      8609      8607      8606      8608      8607      8606      8609
      8608      8606      8609      8598      8610      8611      8598      8610      8612
      8598      8610      8613      8611      8610      8612      8611      8610      8613
      8612      8610      8613      8599      8614      8615      8599      8614      8616
      8599      8614      8620      8615      8614      8616      8615      8614      8620
      8616      8614      8620      8618      8617      8619      8618      8617      8620
      8618      8617      8621      8619      8617      8620      8619      8617      8621
      8620      8617      8621      8614      8620      8617      8617      8621      8622
      8621      8622      8623      8621      8622      8624      8621      8622      8625
      8623      8622      8624      8623      8622      8625      8624      8622      8625
      8622      8625      8626      8622      8625      8627      8622      8625      8633
      8626      8625      8627      8626      8625      8633      8627      8625      8633
      8625      8627      8628      8627      8628      8629      8627      8628      8630
      8629      8628      8630      8628      8630      8631      8628      8630      8632
      8628      8630      8642      8631      8630      8632      8631      8630      8642
      8632      8630      8642      8625      8633      8634      8625      8633      8635
      8625      8633      8636      8634      8633      8635      8634      8633      8636
      8635      8633      8636      8633      8636      8637      8636      8637      8638
      8636      8637      8639      8638      8637      8639      8637      8639      8640
      8637      8639      8641      8637      8639      8689      8640      8639      8641
      8640      8639      8689      8641      8639      8689      8630      8642      8643
      8630      8642      8644      8630      8642      8645      8643      8642      8644
      8643      8642      8645      8644      8642      8645      8642      8645      8646
      8642      8645      8647      8642      8645      8648      8646      8645      8647
      8646      8645      8648      8647      8645      8648      8645      8648      8649
      8645      8648      8650      8645      8648      8651      8649      8648      8650
      8649      8648      8651      8650      8648      8651      8648      8651      8652
      8648      8651      8653      8648      8651      8654      8652      8651      8653
      8652      8651      8654      8653      8651      8654      8651      8654      8655
      8651      8654      8656      8651      8654      8657      8655      8654      8656
      8655      8654      8657      8656      8654      8657      8654      8657      8658
      8654      8657      8659      8654      8657      8660      8658      8657      8659
      8658      8657      8660      8659      8657      8660      8657      8660      8661
      8657      8660      8662      8661      8660      8662      8660      8662      8663
      8660      8662      8664      8663      8662      8664      8662      8664      8665
      8662      8664      8666      8662      8664      8667      8665      8664      8666
      8665      8664      8667      8666      8664      8667      8664      8667      8668
      8664      8667      8669      8664      8667      8670      8668      8667      8669
      8668      8667      8670      8669      8667      8670      8667      8670      8671
      8667      8670      8672      8667      8670      8673      8671      8670      8672
      8671      8670      8673      8672      8670      8673      8670      8673      8674
      8670      8673      8675      8670      8673      8676      8674      8673      8675
      8674      8673      8676      8675      8673      8676      8673      8676      8677
      8673      8676      8678      8673      8676      8679      8677      8676      8678
      8677      8676      8679      8678      8676      8679      8676      8679      8680
      8676      8679      8681      8676      8679      8682      8680      8679      8681
      8680      8679      8682      8681      8679      8682      8679      8682      8683
      8679      8682      8684      8679      8682      8685      8683      8682      8684
      8683      8682      8685      8684      8682      8685      8682      8685      8686
      8682      8685      8687      8682      8685      8688      8686      8685      8687
      8686      8685      8688      8687      8685      8688      8639      8689      8690
      8639      8689      8691      8639      8689      8692      8690      8689      8691
      8690      8689      8692      8691      8689      8692      8689      8692      8693
      8689      8692      8694      8689      8692      8695      8693      8692      8694
      8693      8692      8695      8694      8692      8695      8692      8695      8696
      8692      8695      8697      8692      8695      8698      8696      8695      8697
      8696      8695      8698      8697      8695      8698      8695      8698      8699
      8695      8698      8700      8695      8698      8701      8699      8698      8700
      8699      8698      8701      8700      8698      8701      8698      8701      8702
      8698      8701      8703      8698      8701      8704      8702      8701      8703
      8702      8701      8704      8703      8701      8704      8701      8704      8705
      8701      8704      8706      8701      8704      8707      8705      8704      8706
      8705      8704      8707      8706      8704      8707      8704      8707      8708
      8704      8707      8709      8704      8707      8710      8708      8707      8709
      8708      8707      8710      8709      8707      8710      8707      8710      8711
      8707      8710      8712      8707      8710      8713      8711      8710      8712
      8711      8710      8713      8712      8710      8713      8710      8713      8714
      8710      8713      8715      8710      8713      8716      8714      8713      8715
      8714      8713      8716      8715      8713      8716      8713      8716      8717
      8713      8716      8718      8713      8716      8719      8717      8716      8718
      8717      8716      8719      8718      8716      8719      8716      8719      8720
      8716      8719      8721      8716      8719      8722      8720      8719      8721
      8720      8719      8722      8721      8719      8722      8719      8722      8723
      8719      8722      8724      8719      8722      8725      8723      8722      8724
      8723      8722      8725      8724      8722      8725      8722      8725      8726
      8722      8725      8727      8722      8725      8728      8726      8725      8727
      8726      8725      8728      8727      8725      8728      8725      8728      8729
      8725      8728      8730      8725      8728      8731      8729      8728      8730
      8729      8728      8731      8730      8728      8731      8733      8732      8736
      8733      8732      8740      8733      8732      8744      8736      8732      8740
      8736      8732      8744      8740      8732      8744      8732      8733      8734
      8732      8733      8735      8732      8733      8748      8734      8733      8735
      8734      8733      8748      8735      8733      8748      8732      8736      8737
      8732      8736      8738      8732      8736      8739      8737      8736      8738
      8737      8736      8739      8738      8736      8739      8732      8740      8741
      8732      8740      8742      8732      8740      8743      8741      8740      8742
      8741      8740      8743      8742      8740      8743      8732      8744      8745
      8732      8744      8746      8732      8744      8747      8745      8744      8746
      8745      8744      8747      8746      8744      8747      8733      8748      8749
      8733      8748      8750      8733      8748      8754      8749      8748      8750
      8749      8748      8754      8750      8748      8754      8752      8751      8753
      8752      8751      8754      8752      8751      8755      8753      8751      8754
      8753      8751      8755      8754      8751      8755      8748      8754      8751
      8751      8755      8756      8755      8756      8757      8755      8756      8758
      8755      8756      8759      8757      8756      8758      8757      8756      8759
      8758      8756      8759      8756      8759      8760      8756      8759      8761
      8756      8759      8767      8760      8759      8761      8760      8759      8767
      8761      8759      8767      8759      8761      8762      8761      8762      8763
      8761      8762      8764      8763      8762      8764      8762      8764      8765
      8762      8764      8766      8762      8764      8776      8765      8764      8766
      8765      8764      8776      8766      8764      8776      8759      8767      8768
      8759      8767      8769      8759      8767      8770      8768      8767      8769
      8768      8767      8770      8769      8767      8770      8767      8770      8771
      8770      8771      8772      8770      8771      8773      8772      8771      8773
      8771      8773      8774      8771      8773      8775      8771      8773      8823
      8774      8773      8775      8774      8773      8823      8775      8773      8823
      8764      8776      8777      8764      8776      8778      8764      8776      8779
      8777      8776      8778      8777      8776      8779      8778      8776      8779
      8776      8779      8780      8776      8779      8781      8776      8779      8782
      8780      8779      8781      8780      8779      8782      8781      8779      8782
      8779      8782      8783      8779      8782      8784      8779      8782      8785
      8783      8782      8784      8783      8782      8785      8784      8782      8785
      8782      8785      8786      8782      8785      8787      8782      8785      8788
      8786      8785      8787      8786      8785      8788      8787      8785      8788
      8785      8788      8789      8785      8788      8790      8785      8788      8791
      8789      8788      8790      8789      8788      8791      8790      8788      8791
      8788      8791      8792      8788      8791      8793      8788      8791      8794
      8792      8791      8793      8792      8791      8794      8793      8791      8794
      8791      8794      8795      8791      8794      8796      8795      8794      8796
      8794      8796      8797      8794      8796      8798      8797      8796      8798
      8796      8798      8799      8796      8798      8800      8796      8798      8801
      8799      8798      8800      8799      8798      8801      8800      8798      8801
      8798      8801      8802      8798      8801      8803      8798      8801      8804
      8802      8801      8803      8802      8801      8804      8803      8801      8804
      8801      8804      8805      8801      8804      8806      8801      8804      8807
      8805      8804      8806      8805      8804      8807      8806      8804      8807
      8804      8807      8808      8804      8807      8809      8804      8807      8810
      8808      8807      8809      8808      8807      8810      8809      8807      8810
      8807      8810      8811      8807      8810      8812      8807      8810      8813
      8811      8810      8812      8811      8810      8813      8812      8810      8813
      8810      8813      8814      8810      8813      8815      8810      8813      8816
      8814      8813      8815      8814      8813      8816      8815      8813      8816
      8813      8816      8817      8813      8816      8818      8813      8816      8819
      8817      8816      8818      8817      8816      8819      8818      8816      8819
      8816      8819      8820      8816      8819      8821      8816      8819      8822
      8820      8819      8821      8820      8819      8822      8821      8819      8822
      8773      8823      8824      8773      8823      8825      8773      8823      8826
      8824      8823      8825      8824      8823      8826      8825      8823      8826
      8823      8826      8827      8823      8826      8828      8823      8826      8829
      8827      8826      8828      8827      8826      8829      8828      8826      8829
      8826      8829      8830      8826      8829      8831      8826      8829      8832
      8830      8829      8831      8830      8829      8832      8831      8829      8832
      8829      8832      8833      8829      8832      8834      8829      8832      8835
      8833      8832      8834      8833      8832      8835      8834      8832      8835
      8832      8835      8836      8832      8835      8837      8832      8835      8838
      8836      8835      8837      8836      8835      8838      8837      8835      8838
      8835      8838      8839      8835      8838      8840      8835      8838      8841
      8839      8838      8840      8839      8838      8841      8840      8838      8841
      8838      8841      8842      8838      8841      8843      8838      8841      8844
      8842      8841      8843      8842      8841      8844      8843      8841      8844
      8841      8844      8845      8841      8844      8846      8841      8844      8847
      8845      8844      8846      8845      8844      8847      8846      8844      8847
      8844      8847      8848      8844      8847      8849      8844      8847      8850
      8848      8847      8849      8848      8847      8850      8849      8847      8850
      8847      8850      8851      8847      8850      8852      8847      8850      8853
      8851      8850      8852      8851      8850      8853      8852      8850      8853
      8850      8853      8854      8850      8853      8855      8850      8853      8856
      8854      8853      8855      8854      8853      8856      8855      8853      8856
      8853      8856      8857      8853      8856      8858      8853      8856      8859
      8857      8856      8858      8857      8856      8859      8858      8856      8859
      8856      8859      8860      8856      8859      8861      8856      8859      8862
      8860      8859      8861      8860      8859      8862      8861      8859      8862
      8859      8862      8863      8859      8862      8864      8859      8862      8865
      8863      8862      8864      8863      8862      8865      8864      8862      8865
      8867      8866      8870      8867      8866      8874      8867      8866      8878
      8870      8866      8874      8870      8866      8878      8874      8866      8878
      8866      8867      8868      8866      8867      8869      8866      8867      8882
      8868      8867      8869      8868      8867      8882      8869      8867      8882
      8866      8870      8871      8866      8870      8872      8866      8870      8873
      8871      8870      8872      8871      8870      8873      8872      8870      8873
      8866      8874      8875      8866      8874      8876      8866      8874      8877
      8875      8874      8876      8875      8874      8877      8876      8874      8877
      8866      8878      8879      8866      8878      8880      8866      8878      8881
      8879      8878      8880      8879      8878      8881      8880      8878      8881
      8867      8882      8883      8867      8882      8884      8867      8882      8888
      8883      8882      8884      8883      8882      8888      8884      8882      8888
      8886      8885      8887      8886      8885      8888      8886      8885      8889
      8887      8885      8888      8887      8885      8889      8888      8885      8889
      8882      8888      8885      8885      8889      8890      8889      8890      8891
      8889      8890      8892      8889      8890      8893      8891      8890      8892
      8891      8890      8893      8892      8890      8893      8890      8893      8894
      8890      8893      8895      8890      8893      8901      8894      8893      8895
      8894      8893      8901      8895      8893      8901      8893      8895      8896
      8895      8896      8897      8895      8896      8898      8897      8896      8898
      8896      8898      8899      8896      8898      8900      8896      8898      8910
      8899      8898      8900      8899      8898      8910      8900      8898      8910
      8893      8901      8902      8893      8901      8903      8893      8901      8904
      8902      8901      8903      8902      8901      8904      8903      8901      8904
      8901      8904      8905      8904      8905      8906      8904      8905      8907
      8906      8905      8907      8905      8907      8908      8905      8907      8909
      8905      8907      8957      8908      8907      8909      8908      8907      8957
      8909      8907      8957      8898      8910      8911      8898      8910      8912
      8898      8910      8913      8911      8910      8912      8911      8910      8913
      8912      8910      8913      8910      8913      8914      8910      8913      8915
      8910      8913      8916      8914      8913      8915      8914      8913      8916
      8915      8913      8916      8913      8916      8917      8913      8916      8918
      8913      8916      8919      8917      8916      8918      8917      8916      8919
      8918      8916      8919      8916      8919      8920      8916      8919      8921
      8916      8919      8922      8920      8919      8921      8920      8919      8922
      8921      8919      8922      8919      8922      8923      8919      8922      8924
      8919      8922      8925      8923      8922      8924      8923      8922      8925
      8924      8922      8925      8922      8925      8926      8922      8925      8927
      8922      8925      8928      8926      8925      8927      8926      8925      8928
      8927      8925      8928      8925      8928      8929      8925      8928      8930
      8929      8928      8930      8928      8930      8931      8928      8930      8932
      8931      8930      8932      8930      8932      8933      8930      8932      8934
      8930      8932      8935      8933      8932      8934      8933      8932      8935
      8934      8932      8935      8932      8935      8936      8932      8935      8937
      8932      8935      8938      8936      8935      8937      8936      8935      8938
      8937      8935      8938      8935      8938      8939      8935      8938      8940
      8935      8938      8941      8939      8938      8940      8939      8938      8941
      8940      8938      8941      8938      8941      8942      8938      8941      8943
      8938      8941      8944      8942      8941      8943      8942      8941      8944
      8943      8941      8944      8941      8944      8945      8941      8944      8946
      8941      8944      8947      8945      8944      8946      8945      8944      8947
      8946      8944      8947      8944      8947      8948      8944      8947      8949
      8944      8947      8950      8948      8947      8949      8948      8947      8950
      8949      8947      8950      8947      8950      8951      8947      8950      8952
      8947      8950      8953      8951      8950      8952      8951      8950      8953
      8952      8950      8953      8950      8953      8954      8950      8953      8955
      8950      8953      8956      8954      8953      8955      8954      8953      8956
      8955      8953      8956      8907      8957      8958      8907      8957      8959
      8907      8957      8960      8958      8957      8959      8958      8957      8960
      8959      8957      8960      8957      8960      8961      8957      8960      8962
      8957      8960      8963      8961      8960      8962      8961      8960      8963
      8962      8960      8963      8960      8963      8964      8960      8963      8965
      8960      8963      8966      8964      8963      8965      8964      8963      8966
      8965      8963      8966      8963      8966      8967      8963      8966      8968
      8963      8966      8969      8967      8966      8968      8967      8966      8969
      8968      8966      8969      8966      8969      8970      8966      8969      8971
      8966      8969      8972      8970      8969      8971      8970      8969      8972
      8971      8969      8972      8969      8972      8973      8969      8972      8974
      8969      8972      8975      8973      8972      8974      8973      8972      8975
      8974      8972      8975      8972      8975      8976      8972      8975      8977
      8972      8975      8978      8976      8975      8977      8976      8975      8978
      8977      8975      8978      8975      8978      8979      8975      8978      8980
      8975      8978      8981      8979      8978      8980      8979      8978      8981
      8980      8978      8981      8978      8981      8982      8978      8981      8983
      8978      8981      8984      8982      8981      8983      8982      8981      8984
      8983      8981      8984      8981      8984      8985      8981      8984      8986
      8981      8984      8987      8985      8984      8986      8985      8984      8987
      8986      8984      8987      8984      8987      8988      8984      8987      8989
      8984      8987      8990      8988      8987      8989      8988      8987      8990
      8989      8987      8990      8987      8990      8991      8987      8990      8992
      8987      8990      8993      8991      8990      8992      8991      8990      8993
      8992      8990      8993      8990      8993      8994      8990      8993      8995
      8990      8993      8996      8994      8993      8995      8994      8993      8996
      8995      8993      8996      8993      8996      8997      8993      8996      8998
      8993      8996      8999      8997      8996      8998      8997      8996      8999
      8998      8996      8999      9001      9000      9002      9001      9000      9003
      9001      9000      9004      9002      9000      9003      9002      9000      9004
      9003      9000      9004      9000      9004      9005      9000      9004      9006
      9000      9004      9009      9005      9004      9006      9005      9004      9009
      9006      9004      9009      9004      9006      9007      9004      9006      9008
      9007      9006      9008      9004      9009      9010      9004      9009      9011
      9004      9009      9015      9010      9009      9011      9010      9009      9015
      9011      9009      9015      9013      9012      9014      9013      9012      9015
      9013      9012      9016      9014      9012      9015      9014      9012      9016
      9015      9012      9016      9009      9015      9012      9012      9016      9017
      9016      9017      9018      9016      9017      9019      9016      9017      9020
      9018      9017      9019      9018      9017      9020      9019      9017      9020
      9017      9020      9021      9017      9020      9022      9017      9020      9028
      9021      9020      9022      9021      9020      9028      9022      9020      9028
      9020      9022      9023      9022      9023      9024      9022      9023      9025
      9024      9023      9025      9023      9025      9026      9023      9025      9027
      9023      9025      9037      9026      9025      9027      9026      9025      9037
      9027      9025      9037      9020      9028      9029      9020      9028      9030
      9020      9028      9031      9029      9028      9030      9029      9028      9031
      9030      9028      9031      9028      9031      9032      9031      9032      9033
      9031      9032      9034      9033      9032      9034      9032      9034      9035
      9032      9034      9036      9032      9034      9084      9035      9034      9036
      9035      9034      9084      9036      9034      9084      9025      9037      9038
      9025      9037      9039      9025      9037      9040      9038      9037      9039
      9038      9037      9040      9039      9037      9040      9037      9040      9041
      9037      9040      9042      9037      9040      9043      9041      9040      9042
      9041      9040      9043      9042      9040      9043      9040      9043      9044
      9040      9043      9045      9040      9043      9046      9044      9043      9045
      9044      9043      9046      9045      9043      9046      9043      9046      9047
      9043      9046      9048      9043      9046      9049      9047      9046      9048
      9047      9046      9049      9048      9046      9049      9046      9049      9050
      9046      9049      9051      9046      9049      9052      9050      9049      9051
      9050      9049      9052      9051      9049      9052      9049      9052      9053
      9049      9052      9054      9049      9052      9055      9053      9052      9054
      9053      9052      9055      9054      9052      9055      9052      9055      9056
      9052      9055      9057      9056      9055      9057      9055      9057      9058
      9055      9057      9059      9058      9057      9059      9057      9059      9060
      9057      9059      9061      9057      9059      9062      9060      9059      9061
      9060      9059      9062      9061      9059      9062      9059      9062      9063
      9059      9062      9064      9059      9062      9065      9063      9062      9064
      9063      9062      9065      9064      9062      9065      9062      9065      9066
      9062      9065      9067      9062      9065      9068      9066      9065      9067
      9066      9065      9068      9067      9065      9068      9065      9068      9069
      9065      9068      9070      9065      9068      9071      9069      9068      9070
      9069      9068      9071      9070      9068      9071      9068      9071      9072
      9068      9071      9073      9068      9071      9074      9072      9071      9073
      9072      9071      9074      9073      9071      9074      9071      9074      9075
      9071      9074      9076      9071      9074      9077      9075      9074      9076
      9075      9074      9077      9076      9074      9077      9074      9077      9078
      9074      9077      9079      9074      9077      9080      9078      9077      9079
      9078      9077      9080      9079      9077      9080      9077      9080      9081
      9077      9080      9082      9077      9080      9083      9081      9080      9082
      9081      9080      9083      9082      9080      9083      9034      9084      9085
      9034      9084      9086      9034      9084      9087      9085      9084      9086
      9085      9084      9087      9086      9084      9087      9084      9087      9088
      9084      9087      9089      9084      9087      9090      9088      9087      9089
      9088      9087      9090      9089      9087      9090      9087      9090      9091
      9087      9090      9092      9087      9090      9093      9091      9090      9092
      9091      9090      9093      9092      9090      9093      9090      9093      9094
      9090      9093      9095      9090      9093      9096      9094      9093      9095
      9094      9093      9096      9095      9093      9096      9093      9096      9097
      9093      9096      9098      9093      9096      9099      9097      9096      9098
      9097      9096      9099      9098      9096      9099      9096      9099      9100
      9096      9099      9101      9096      9099      9102      9100      9099      9101
      9100      9099      9102      9101      9099      9102      9099      9102      9103
      9099      9102      9104      9099      9102      9105      9103      9102      9104
      9103      9102      9105      9104      9102      9105      9102      9105      9106
      9102      9105      9107      9102      9105      9108      9106      9105      9107
      9106      9105      9108      9107      9105      9108      9105      9108      9109
      9105      9108      9110      9105      9108      9111      9109      9108      9110
      9109      9108      9111      9110      9108      9111      9108      9111      9112
      9108      9111      9113      9108      9111      9114      9112      9111      9113
      9112      9111      9114      9113      9111      9114      9111      9114      9115
      9111      9114      9116      9111      9114      9117      9115      9114      9116
      9115      9114      9117      9116      9114      9117      9114      9117      9118
      9114      9117      9119      9114      9117      9120      9118      9117      9119
      9118      9117      9120      9119      9117      9120      9117      9120      9121
      9117      9120      9122      9117      9120      9123      9121      9120      9122
      9121      9120      9123      9122      9120      9123      9120      9123      9124
      9120      9123      9125      9120      9123      9126      9124      9123      9125
      9124      9123      9126      9125      9123      9126      9128      9127      9129
      9128      9127      9130      9128      9127      9131      9129      9127      9130
      9129      9127      9131      9130      9127      9131      9127      9131      9132
      9127      9131      9133      9127      9131      9136      9132      9131      9133
      9132      9131      9136      9133      9131      9136      9131      9133      9134
      9131      9133      9135      9134      9133      9135      9131      9136      9137
      9131      9136      9138      9131      9136      9142      9137      9136      9138
      9137      9136      9142      9138      9136      9142      9140      9139      9141
      9140      9139      9142      9140      9139      9143      9141      9139      9142
      9141      9139      9143      9142      9139      9143      9136      9142      9139
      9139      9143      9144      9143      9144      9145      9143      9144      9146
      9143      9144      9147      9145      9144      9146      9145      9144      9147
      9146      9144      9147      9144      9147      9148      9144      9147      9149
      9144      9147      9155      9148      9147      9149      9148      9147      9155
      9149      9147      9155      9147      9149      9150      9149      9150      9151
      9149      9150      9152      9151      9150      9152      9150      9152      9153
      9150      9152      9154      9150      9152      9164      9153      9152      9154
      9153      9152      9164      9154      9152      9164      9147      9155      9156
      9147      9155      9157      9147      9155      9158      9156      9155      9157
      9156      9155      9158      9157      9155      9158      9155      9158      9159
      9158      9159      9160      9158      9159      9161      9160      9159      9161
      9159      9161      9162      9159      9161      9163      9159      9161      9211
      9162      9161      9163      9162      9161      9211      9163      9161      9211
      9152      9164      9165      9152      9164      9166      9152      9164      9167
      9165      9164      9166      9165      9164      9167      9166      9164      9167
      9164      9167      9168      9164      9167      9169      9164      9167      9170
      9168      9167      9169      9168      9167      9170      9169      9167      9170
      9167      9170      9171      9167      9170      9172      9167      9170      9173
      9171      9170      9172      9171      9170      9173      9172      9170      9173
      9170      9173      9174      9170      9173      9175      9170      9173      9176
      9174      9173      9175      9174      9173      9176      9175      9173      9176
      9173      9176      9177      9173      9176      9178      9173      9176      9179
      9177      9176      9178      9177      9176      9179      9178      9176      9179
      9176      9179      9180      9176      9179      9181      9176      9179      9182
      9180      9179      9181      9180      9179      9182      9181      9179      9182
      9179      9182      9183      9179      9182      9184      9183      9182      9184
      9182      9184      9185      9182      9184      9186      9185      9184      9186
      9184      9186      9187      9184      9186      9188      9184      9186      9189
      9187      9186      9188      9187      9186      9189      9188      9186      9189
      9186      9189      9190      9186      9189      9191      9186      9189      9192
      9190      9189      9191      9190      9189      9192      9191      9189      9192
      9189      9192      9193      9189      9192      9194      9189      9192      9195
      9193      9192      9194      9193      9192      9195      9194      9192      9195
      9192      9195      9196      9192      9195      9197      9192      9195      9198
      9196      9195      9197      9196      9195      9198      9197      9195      9198
      9195      9198      9199      9195      9198      9200      9195      9198      9201
      9199      9198      9200      9199      9198      9201      9200      9198      9201
      9198      9201      9202      9198      9201      9203      9198      9201      9204
      9202      9201      9203      9202      9201      9204      9203      9201      9204
      9201      9204      9205      9201      9204      9206      9201      9204      9207
      9205      9204      9206      9205      9204      9207      9206      9204      9207
      9204      9207      9208      9204      9207      9209      9204      9207      9210
      9208      9207      9209      9208      9207      9210      9209      9207      9210
      9161      9211      9212      9161      9211      9213      9161      9211      9214
      9212      9211      9213      9212      9211      9214      9213      9211      9214
      9211      9214      9215      9211      9214      9216      9211      9214      9217
      9215      9214      9216      9215      9214      9217      9216      9214      9217
      9214      9217      9218      9214      9217      9219      9214      9217      9220
      9218      9217      9219      9218      9217      9220      9219      9217      9220
      9217      9220      9221      9217      9220      9222      9217      9220      9223
      9221      9220      9222      9221      9220      9223      9222      9220      9223
      9220      9223      9224      9220      9223      9225      9220      9223      9226
      9224      9223      9225      9224      9223      9226      9225      9223      9226
      9223      9226      9227      9223      9226      9228      9223      9226      9229
      9227      9226      9228      9227      9226      9229      9228      9226      9229
      9226      9229      9230      9226      9229      9231      9226      9229      9232
      9230      9229      9231      9230      9229      9232      9231      9229      9232
      9229      9232      9233      9229      9232      9234      9229      9232      9235
      9233      9232      9234      9233      9232      9235      9234      9232      9235
      9232      9235      9236      9232      9235      9237      9232      9235      9238
      9236      9235      9237      9236      9235      9238      9237      9235      9238
      9235      9238      9239      9235      9238      9240      9235      9238      9241
      9239      9238      9240      9239      9238      9241      9240      9238      9241
      9238      9241      9242      9238      9241      9243      9238      9241      9244
      9242      9241      9243      9242      9241      9244      9243      9241      9244
      9241      9244      9245      9241      9244      9246      9241      9244      9247
      9245      9244      9246      9245      9244      9247      9246      9244      9247
      9244      9247      9248      9244      9247      9249      9244      9247      9250
      9248      9247      9249      9248      9247      9250      9249      9247      9250
      9247      9250      9251      9247      9250      9252      9247      9250      9253
      9251      9250      9252      9251      9250      9253      9252      9250      9253
      9255      9254      9258      9255      9254      9262      9255      9254      9266
      9258      9254      9262      9258      9254      9266      9262      9254      9266
      9254      9255      9256      9254      9255      9257      9254      9255      9270
      9256      9255      9257      9256      9255      9270      9257      9255      9270
      9254      9258      9259      9254      9258      9260      9254      9258      9261
      9259      9258      9260      9259      9258      9261      9260      9258      9261
      9254      9262      9263      9254      9262      9264      9254      9262      9265
      9263      9262      9264      9263      9262      9265      9264      9262      9265
      9254      9266      9267      9254      9266      9268      9254      9266      9269
      9267      9266      9268      9267      9266      9269      9268      9266      9269
      9255      9270      9271      9255      9270      9272      9255      9270      9276
      9271      9270      9272      9271      9270      9276      9272      9270      9276
      9274      9273      9275      9274      9273      9276      9274      9273      9277
      9275      9273      9276      9275      9273      9277      9276      9273      9277
      9270      9276      9273      9273      9277      9278      9277      9278      9279
      9277      9278      9280      9277      9278      9281      9279      9278      9280
      9279      9278      9281      9280      9278      9281      9278      9281      9282
      9278      9281      9283      9278      9281      9289      9282      9281      9283
      9282      9281      9289      9283      9281      9289      9281      9283      9284
      9283      9284      9285      9283      9284      9286      9285      9284      9286
      9284      9286      9287      9284      9286      9288      9284      9286      9298
      9287      9286      9288      9287      9286      9298      9288      9286      9298
      9281      9289      9290      9281      9289      9291      9281      9289      9292
      9290      9289      9291      9290      9289      9292      9291      9289      9292
      9289      9292      9293      9292      9293      9294      9292      9293      9295
      9294      9293      9295      9293      9295      9296      9293      9295      9297
      9293      9295      9345      9296      9295      9297      9296      9295      9345
      9297      9295      9345      9286      9298      9299      9286      9298      9300
      9286      9298      9301      9299      9298      9300      9299      9298      9301
      9300      9298      9301      9298      9301      9302      9298      9301      9303
      9298      9301      9304      9302      9301      9303      9302      9301      9304
      9303      9301      9304      9301      9304      9305      9301      9304      9306
      9301      9304      9307      9305      9304      9306      9305      9304      9307
      9306      9304      9307      9304      9307      9308      9304      9307      9309
      9304      9307      9310      9308      9307      9309      9308      9307      9310
      9309      9307      9310      9307      9310      9311      9307      9310      9312
      9307      9310      9313      9311      9310      9312      9311      9310      9313
      9312      9310      9313      9310      9313      9314      9310      9313      9315
      9310      9313      9316      9314      9313      9315      9314      9313      9316
      9315      9313      9316      9313      9316      9317      9313      9316      9318
      9317      9316      9318      9316      9318      9319      9316      9318      9320
      9319      9318      9320      9318      9320      9321      9318      9320      9322
      9318      9320      9323      9321      9320      9322      9321      9320      9323
      9322      9320      9323      9320      9323      9324      9320      9323      9325
      9320      9323      9326      9324      9323      9325      9324      9323      9326
      9325      9323      9326      9323      9326      9327      9323      9326      9328
      9323      9326      9329      9327      9326      9328      9327      9326      9329
      9328      9326      9329      9326      9329      9330      9326      9329      9331
      9326      9329      9332      9330      9329      9331      9330      9329      9332
      9331      9329      9332      9329      9332      9333      9329      9332      9334
      9329      9332      9335      9333      9332      9334      9333      9332      9335
      9334      9332      9335      9332      9335      9336      9332      9335      9337
      9332      9335      9338      9336      9335      9337      9336      9335      9338
      9337      9335      9338      9335      9338      9339      9335      9338      9340
      9335      9338      9341      9339      9338      9340      9339      9338      9341
      9340      9338      9341      9338      9341      9342      9338      9341      9343
      9338      9341      9344      9342      9341      9343      9342      9341      9344
      9343      9341      9344      9295      9345      9346      9295      9345      9347
      9295      9345      9348      9346      9345      9347      9346      9345      9348
      9347      9345      9348      9345      9348      9349      9345      9348      9350
      9345      9348      9351      9349      9348      9350      9349      9348      9351
      9350      9348      9351      9348      9351      9352      9348      9351      9353
      9348      9351      9354      9352      9351      9353      9352      9351      9354
      9353      9351      9354      9351      9354      9355      9351      9354      9356
      9351      9354      9357      9355      9354      9356      9355      9354      9357
      9356      9354      9357      9354      9357      9358      9354      9357      9359
      9354      9357      9360      9358      9357      9359      9358      9357      9360
      9359      9357      9360      9357      9360      9361      9357      9360      9362
      9357      9360      9363      9361      9360      9362      9361      9360      9363
      9362      9360      9363      9360      9363      9364      9360      9363      9365
      9360      9363      9366      9364      9363      9365      9364      9363      9366
      9365      9363      9366      9363      9366      9367      9363      9366      9368
      9363      9366      9369      9367      9366      9368      9367      9366      9369
      9368      9366      9369      9366      9369      9370      9366      9369      9371
      9366      9369      9372      9370      9369      9371      9370      9369      9372
      9371      9369      9372      9369      9372      9373      9369      9372      9374
      9369      9372      9375      9373      9372      9374      9373      9372      9375
      9374      9372      9375      9372      9375      9376      9372      9375      9377
      9372      9375      9378      9376      9375      9377      9376      9375      9378
      9377      9375      9378      9375      9378      9379      9375      9378      9380
      9375      9378      9381      9379      9378      9380      9379      9378      9381
      9380      9378      9381      9378      9381      9382      9378      9381      9383
      9378      9381      9384      9382      9381      9383      9382      9381      9384
      9383      9381      9384      9381      9384      9385      9381      9384      9386
      9381      9384      9387      9385      9384      9386      9385      9384      9387
      9386      9384      9387      9389      9388      9392      9389      9388      9396
      9389      9388      9400      9392      9388      9396      9392      9388      9400
      9396      9388      9400      9388      9389      9390      9388      9389      9391
      9388      9389      9404      9390      9389      9391      9390      9389      9404
      9391      9389      9404      9388      9392      9393      9388      9392      9394
      9388      9392      9395      9393      9392      9394      9393      9392      9395
      9394      9392      9395      9388      9396      9397      9388      9396      9398
      9388      9396      9399      9397      9396      9398      9397      9396      9399
      9398      9396      9399      9388      9400      9401      9388      9400      9402
      9388      9400      9403      9401      9400      9402      9401      9400      9403
      9402      9400      9403      9389      9404      9405      9389      9404      9406
      9389      9404      9410      9405      9404      9406      9405      9404      9410
      9406      9404      9410      9408      9407      9409      9408      9407      9410
      9408      9407      9411      9409      9407      9410      9409      9407      9411
      9410      9407      9411      9404      9410      9407      9407      9411      9412
      9411      9412      9413      9411      9412      9414      9411      9412      9415
      9413      9412      9414      9413      9412      9415      9414      9412      9415
      9412      9415      9416      9412      9415      9417      9412      9415      9423
      9416      9415      9417      9416      9415      9423      9417      9415      9423
      9415      9417      9418      9417      9418      9419      9417      9418      9420
      9419      9418      9420      9418      9420      9421      9418      9420      9422
      9418      9420      9432      9421      9420      9422      9421      9420      9432
      9422      9420      9432      9415      9423      9424      9415      9423      9425
      9415      9423      9426      9424      9423      9425      9424      9423      9426
      9425      9423      9426      9423      9426      9427      9426      9427      9428
      9426      9427      9429      9428      9427      9429      9427      9429      9430
      9427      9429      9431      9427      9429      9479      9430      9429      9431
      9430      9429      9479      9431      9429      9479      9420      9432      9433
      9420      9432      9434      9420      9432      9435      9433      9432      9434
      9433      9432      9435      9434      9432      9435      9432      9435      9436
      9432      9435      9437      9432      9435      9438      9436      9435      9437
      9436      9435      9438      9437      9435      9438      9435      9438      9439
      9435      9438      9440      9435      9438      9441      9439      9438      9440
      9439      9438      9441      9440      9438      9441      9438      9441      9442
      9438      9441      9443      9438      9441      9444      9442      9441      9443
      9442      9441      9444      9443      9441      9444      9441      9444      9445
      9441      9444      9446      9441      9444      9447      9445      9444      9446
      9445      9444      9447      9446      9444      9447      9444      9447      9448
      9444      9447      9449      9444      9447      9450      9448      9447      9449
      9448      9447      9450      9449      9447      9450      9447      9450      9451
      9447      9450      9452      9451      9450      9452      9450      9452      9453
      9450      9452      9454      9453      9452      9454      9452      9454      9455
      9452      9454      9456      9452      9454      9457      9455      9454      9456
      9455      9454      9457      9456      9454      9457      9454      9457      9458
      9454      9457      9459      9454      9457      9460      9458      9457      9459
      9458      9457      9460      9459      9457      9460      9457      9460      9461
      9457      9460      9462      9457      9460      9463      9461      9460      9462
      9461      9460      9463      9462      9460      9463      9460      9463      9464
      9460      9463      9465      9460      9463      9466      9464      9463      9465
      9464      9463      9466      9465      9463      9466      9463      9466      9467
      9463      9466      9468      9463      9466      9469      9467      9466      9468
      9467      9466      9469      9468      9466      9469      9466      9469      9470
      9466      9469      9471      9466      9469      9472      9470      9469      9471
      9470      9469      9472      9471      9469      9472      9469      9472      9473
      9469      9472      9474      9469      9472      9475      9473      9472      9474
      9473      9472      9475      9474      9472      9475      9472      9475      9476
      9472      9475      9477      9472      9475      9478      9476      9475      9477
      9476      9475      9478      9477      9475      9478      9429      9479      9480
      9429      9479      9481      9429      9479      9482      9480      9479      9481
      9480      9479      9482      9481      9479      9482      9479      9482      9483
      9479      9482      9484      9479      9482      9485      9483      9482      9484
      9483      9482      9485      9484      9482      9485      9482      9485      9486
      9482      9485      9487      9482      9485      9488      9486      9485      9487
      9486      9485      9488      9487      9485      9488      9485      9488      9489
      9485      9488      9490      9485      9488      9491      9489      9488      9490
      9489      9488      9491      9490      9488      9491      9488      9491      9492
      9488      9491      9493      9488      9491      9494      9492      9491      9493
      9492      9491      9494      9493      9491      9494      9491      9494      9495
      9491      9494      9496      9491      9494      9497      9495      9494      9496
      9495      9494      9497      9496      9494      9497      9494      9497      9498
      9494      9497      9499      9494      9497      9500      9498      9497      9499
      9498      9497      9500      9499      9497      9500      9497      9500      9501
      9497      9500      9502      9497      9500      9503      9501      9500      9502
      9501      9500      9503      9502      9500      9503      9500      9503      9504
      9500      9503      9505      9500      9503      9506      9504      9503      9505
      9504      9503      9506      9505      9503      9506      9503      9506      9507
      9503      9506      9508      9503      9506      9509      9507      9506      9508
      9507      9506      9509      9508      9506      9509      9506      9509      9510
      9506      9509      9511      9506      9509      9512      9510      9509      9511
      9510      9509      9512      9511      9509      9512      9509      9512      9513
      9509      9512      9514      9509      9512      9515      9513      9512      9514
      9513      9512      9515      9514      9512      9515      9512      9515      9516
      9512      9515      9517      9512      9515      9518      9516      9515      9517
      9516      9515      9518      9517      9515      9518      9515      9518      9519
      9515      9518      9520      9515      9518      9521      9519      9518      9520
      9519      9518      9521      9520      9518      9521      9523      9522      9526
      9523      9522      9530      9523      9522      9534      9526      9522      9530
      9526      9522      9534      9530      9522      9534      9522      9523      9524
      9522      9523      9525      9522      9523      9538      9524      9523      9525
      9524      9523      9538      9525      9523      9538      9522      9526      9527
      9522      9526      9528      9522      9526      9529      9527      9526      9528
      9527      9526      9529      9528      9526      9529      9522      9530      9531
      9522      9530      9532      9522      9530      9533      9531      9530      9532
      9531      9530      9533      9532      9530      9533      9522      9534      9535
      9522      9534      9536      9522      9534      9537      9535      9534      9536
      9535      9534      9537      9536      9534      9537      9523      9538      9539
      9523      9538      9540      9523      9538      9544      9539      9538      9540
      9539      9538      9544      9540      9538      9544      9542      9541      9543
      9542      9541      9544      9542      9541      9545      9543      9541      9544
      9543      9541      9545      9544      9541      9545      9538      9544      9541
      9541      9545      9546      9545      9546      9547      9545      9546      9548
      9545      9546      9549      9547      9546      9548      9547      9546      9549
      9548      9546      9549      9546      9549      9550      9546      9549      9551
      9546      9549      9557      9550      9549      9551      9550      9549      9557
      9551      9549      9557      9549      9551      9552      9551      9552      9553
      9551      9552      9554      9553      9552      9554      9552      9554      9555
      9552      9554      9556      9552      9554      9566      9555      9554      9556
      9555      9554      9566      9556      9554      9566      9549      9557      9558
      9549      9557      9559      9549      9557      9560      9558      9557      9559
      9558      9557      9560      9559      9557      9560      9557      9560      9561
      9560      9561      9562      9560      9561      9563      9562      9561      9563
      9561      9563      9564      9561      9563      9565      9561      9563      9613
      9564      9563      9565      9564      9563      9613      9565      9563      9613
      9554      9566      9567      9554      9566      9568      9554      9566      9569
      9567      9566      9568      9567      9566      9569      9568      9566      9569
      9566      9569      9570      9566      9569      9571      9566      9569      9572
      9570      9569      9571      9570      9569      9572      9571      9569      9572
      9569      9572      9573      9569      9572      9574      9569      9572      9575
      9573      9572      9574      9573      9572      9575      9574      9572      9575
      9572      9575      9576      9572      9575      9577      9572      9575      9578
      9576      9575      9577      9576      9575      9578      9577      9575      9578
      9575      9578      9579      9575      9578      9580      9575      9578      9581
      9579      9578      9580      9579      9578      9581      9580      9578      9581
      9578      9581      9582      9578      9581      9583      9578      9581      9584
      9582      9581      9583      9582      9581      9584      9583      9581      9584
      9581      9584      9585      9581      9584      9586      9585      9584      9586
      9584      9586      9587      9584      9586      9588      9587      9586      9588
      9586      9588      9589      9586      9588      9590      9586      9588      9591
      9589      9588      9590      9589      9588      9591      9590      9588      9591
      9588      9591      9592      9588      9591      9593      9588      9591      9594
      9592      9591      9593      9592      9591      9594      9593      9591      9594
      9591      9594      9595      9591      9594      9596      9591      9594      9597
      9595      9594      9596      9595      9594      9597      9596      9594      9597
      9594      9597      9598      9594      9597      9599      9594      9597      9600
      9598      9597      9599      9598      9597      9600      9599      9597      9600
      9597      9600      9601      9597      9600      9602      9597      9600      9603
      9601      9600      9602      9601      9600      9603      9602      9600      9603
      9600      9603      9604      9600      9603      9605      9600      9603      9606
      9604      9603      9605      9604      9603      9606      9605      9603      9606
      9603      9606      9607      9603      9606      9608      9603      9606      9609
      9607      9606      9608      9607      9606      9609      9608      9606      9609
      9606      9609      9610      9606      9609      9611      9606      9609      9612
      9610      9609      9611      9610      9609      9612      9611      9609      9612
      9563      9613      9614      9563      9613      9615      9563      9613      9616
      9614      9613      9615      9614      9613      9616      9615      9613      9616
      9613      9616      9617      9613      9616      9618      9613      9616      9619
      9617      9616      9618      9617      9616      9619      9618      9616      9619
      9616      9619      9620      9616      9619      9621      9616      9619      9622
      9620      9619      9621      9620      9619      9622      9621      9619      9622
      9619      9622      9623      9619      9622      9624      9619      9622      9625
      9623      9622      9624      9623      9622      9625      9624      9622      9625
      9622      9625      9626      9622      9625      9627      9622      9625      9628
      9626      9625      9627      9626      9625      9628      9627      9625      9628
      9625      9628      9629      9625      9628      9630      9625      9628      9631
      9629      9628      9630      9629      9628      9631      9630      9628      9631
      9628      9631      9632      9628      9631      9633      9628      9631      9634
      9632      9631      9633      9632      9631      9634      9633      9631      9634
      9631      9634      9635      9631      9634      9636      9631      9634      9637
      9635      9634      9636      9635      9634      9637      9636      9634      9637
      9634      9637      9638      9634      9637      9639      9634      9637      9640
      9638      9637      9639      9638      9637      9640      9639      9637      9640
      9637      9640      9641      9637      9640      9642      9637      9640      9643
      9641      9640      9642      9641      9640      9643      9642      9640      9643
      9640      9643      9644      9640      9643      9645      9640      9643      9646
      9644      9643      9645      9644      9643      9646      9645      9643      9646
      9643      9646      9647      9643      9646      9648      9643      9646      9649
      9647      9646      9648      9647      9646      9649      9648      9646      9649
      9646      9649      9650      9646      9649      9651      9646      9649      9652
      9650      9649      9651      9650      9649      9652      9651      9649      9652
      9649      9652      9653      9649      9652      9654      9649      9652      9655
      9653      9652      9654      9653      9652      9655      9654      9652      9655
      9657      9656      9660      9657      9656      9664      9657      9656      9668
      9660      9656      9664      9660      9656      9668      9664      9656      9668
      9656      9657      9658      9656      9657      9659      9656      9657      9672
      9658      9657      9659      9658      9657      9672      9659      9657      9672
      9656      9660      9661      9656      9660      9662      9656      9660      9663
      9661      9660      9662      9661      9660      9663      9662      9660      9663
      9656      9664      9665      9656      9664      9666      9656      9664      9667
      9665      9664      9666      9665      9664      9667      9666      9664      9667
      9656      9668      9669      9656      9668      9670      9656      9668      9671
      9669      9668      9670      9669      9668      9671      9670      9668      9671
      9657      9672      9673      9657      9672      9674      9657      9672      9678
      9673      9672      9674      9673      9672      9678      9674      9672      9678
      9676      9675      9677      9676      9675      9678      9676      9675      9679
      9677      9675      9678      9677      9675      9679      9678      9675      9679
      9672      9678      9675      9675      9679      9680      9679      9680      9681
      9679      9680      9682      9679      9680      9683      9681      9680      9682
      9681      9680      9683      9682      9680      9683      9680      9683      9684
      9680      9683      9685      9680      9683      9691      9684      9683      9685
      9684      9683      9691      9685      9683      9691      9683      9685      9686
      9685      9686      9687      9685      9686      9688      9687      9686      9688
      9686      9688      9689      9686      9688      9690      9686      9688      9700
      9689      9688      9690      9689      9688      9700      9690      9688      9700
      9683      9691      9692      9683      9691      9693      9683      9691      9694
      9692      9691      9693      9692      9691      9694      9693      9691      9694
      9691      9694      9695      9694      9695      9696      9694      9695      9697
      9696      9695      9697      9695      9697      9698      9695      9697      9699
      9695      9697      9747      9698      9697      9699      9698      9697      9747
      9699      9697      9747      9688      9700      9701      9688      9700      9702
      9688      9700      9703      9701      9700      9702      9701      9700      9703
      9702      9700      9703      9700      9703      9704      9700      9703      9705
      9700      9703      9706      9704      9703      9705      9704      9703      9706
      9705      9703      9706      9703      9706      9707      9703      9706      9708
      9703      9706      9709      9707      9706      9708      9707      9706      9709
      9708      9706      9709      9706      9709      9710      9706      9709      9711
      9706      9709      9712      9710      9709      9711      9710      9709      9712
      9711      9709      9712      9709      9712      9713      9709      9712      9714
      9709      9712      9715      9713      9712      9714      9713      9712      9715
      9714      9712      9715      9712      9715      9716      9712      9715      9717
      9712      9715      9718      9716      9715      9717      9716      9715      9718
      9717      9715      9718      9715      9718      9719      9715      9718      9720
      9719      9718      9720      9718      9720      9721      9718      9720      9722
      9721      9720      9722      9720      9722      9723      9720      9722      9724
      9720      9722      9725      9723      9722      9724      9723      9722      9725
      9724      9722      9725      9722      9725      9726      9722      9725      9727
      9722      9725      9728      9726      9725      9727      9726      9725      9728
      9727      9725      9728      9725      9728      9729      9725      9728      9730
      9725      9728      9731      9729      9728      9730      9729      9728      9731
      9730      9728      9731      9728      9731      9732      9728      9731      9733
      9728      9731      9734      9732      9731      9733      9732      9731      9734
      9733      9731      9734      9731      9734      9735      9731      9734      9736
      9731      9734      9737      9735      9734      9736      9735      9734      9737
      9736      9734      9737      9734      9737      9738      9734      9737      9739
      9734      9737      9740      9738      9737      9739      9738      9737      9740
      9739      9737      9740      9737      9740      9741      9737      9740      9742
      9737      9740      9743      9741      9740      9742      9741      9740      9743
      9742      9740      9743      9740      9743      9744      9740      9743      9745
      9740      9743      9746      9744      9743      9745      9744      9743      9746
      9745      9743      9746      9697      9747      9748      9697      9747      9749
      9697      9747      9750      9748      9747      9749      9748      9747      9750
      9749      9747      9750      9747      9750      9751      9747      9750      9752
      9747      9750      9753      9751      9750      9752      9751      9750      9753
      9752      9750      9753      9750      9753      9754      9750      9753      9755
      9750      9753      9756      9754      9753      9755      9754      9753      9756
      9755      9753      9756      9753      9756      9757      9753      9756      9758
      9753      9756      9759      9757      9756      9758      9757      9756      9759
      9758      9756      9759      9756      9759      9760      9756      9759      9761
      9756      9759      9762      9760      9759      9761      9760      9759      9762
      9761      9759      9762      9759      9762      9763      9759      9762      9764
      9759      9762      9765      9763      9762      9764      9763      9762      9765
      9764      9762      9765      9762      9765      9766      9762      9765      9767
      9762      9765      9768      9766      9765      9767      9766      9765      9768
      9767      9765      9768      9765      9768      9769      9765      9768      9770
      9765      9768      9771      9769      9768      9770      9769      9768      9771
      9770      9768      9771      9768      9771      9772      9768      9771      9773
      9768      9771      9774      9772      9771      9773      9772      9771      9774
      9773      9771      9774      9771      9774      9775      9771      9774      9776
      9771      9774      9777      9775      9774      9776      9775      9774      9777
      9776      9774      9777      9774      9777      9778      9774      9777      9779
      9774      9777      9780      9778      9777      9779      9778      9777      9780
      9779      9777      9780      9777      9780      9781      9777      9780      9782
      9777      9780      9783      9781      9780      9782      9781      9780      9783
      9782      9780      9783      9780      9783      9784      9780      9783      9785
      9780      9783      9786      9784      9783      9785      9784      9783      9786
      9785      9783      9786      9783      9786      9787      9783      9786      9788
      9783      9786      9789      9787      9786      9788      9787      9786      9789
      9788      9786      9789      9791      9790      9794      9791      9790      9798
      9791      9790      9802      9794      9790      9798      9794      9790      9802
      9798      9790      9802      9790      9791      9792      9790      9791      9793
      9790      9791      9806      9792      9791      9793      9792      9791      9806
      9793      9791      9806      9790      9794      9795      9790      9794      9796
      9790      9794      9797      9795      9794      9796      9795      9794      9797
      9796      9794      9797      9790      9798      9799      9790      9798      9800
      9790      9798      9801      9799      9798      9800      9799      9798      9801
      9800      9798      9801      9790      9802      9803      9790      9802      9804
      9790      9802      9805      9803      9802      9804      9803      9802      9805
      9804      9802      9805      9791      9806      9807      9791      9806      9808
      9791      9806      9812      9807      9806      9808      9807      9806      9812
      9808      9806      9812      9810      9809      9811      9810      9809      9812
      9810      9809      9813      9811      9809      9812      9811      9809      9813
      9812      9809      9813      9806      9812      9809      9809      9813      9814
      9813      9814      9815      9813      9814      9816      9813      9814      9817
      9815      9814      9816      9815      9814      9817      9816      9814      9817
      9814      9817      9818      9814      9817      9819      9814      9817      9825
      9818      9817      9819      9818      9817      9825      9819      9817      9825
      9817      9819      9820      9819      9820      9821      9819      9820      9822
      9821      9820      9822      9820      9822      9823      9820      9822      9824
      9820      9822      9834      9823      9822      9824      9823      9822      9834
      9824      9822      9834      9817      9825      9826      9817      9825      9827
      9817      9825      9828      9826      9825      9827      9826      9825      9828
      9827      9825      9828      9825      9828      9829      9828      9829      9830
      9828      9829      9831      9830      9829      9831      9829      9831      9832
      9829      9831      9833      9829      9831      9881      9832      9831      9833
      9832      9831      9881      9833      9831      9881      9822      9834      9835
      9822      9834      9836      9822      9834      9837      9835      9834      9836
      9835      9834      9837      9836      9834      9837      9834      9837      9838
      9834      9837      9839      9834      9837      9840      9838      9837      9839
      9838      9837      9840      9839      9837      9840      9837      9840      9841
      9837      9840      9842      9837      9840      9843      9841      9840      9842
      9841      9840      9843      9842      9840      9843      9840      9843      9844
      9840      9843      9845      9840      9843      9846      9844      9843      9845
      9844      9843      9846      9845      9843      9846      9843      9846      9847
      9843      9846      9848      9843      9846      9849      9847      9846      9848
      9847      9846      9849      9848      9846      9849      9846      9849      9850
      9846      9849      9851      9846      9849      9852      9850      9849      9851
      9850      9849      9852      9851      9849      9852      9849      9852      9853
      9849      9852      9854      9853      9852      9854      9852      9854      9855
      9852      9854      9856      9855      9854      9856      9854      9856      9857
      9854      9856      9858      9854      9856      9859      9857      9856      9858
      9857      9856      9859      9858      9856      9859      9856      9859      9860
      9856      9859      9861      9856      9859      9862      9860      9859      9861
      9860      9859      9862      9861      9859      9862      9859      9862      9863
      9859      9862      9864      9859      9862      9865      9863      9862      9864
      9863      9862      9865      9864      9862      9865      9862      9865      9866
      9862      9865      9867      9862      9865      9868      9866      9865      9867
      9866      9865      9868      9867      9865      9868      9865      9868      9869
      9865      9868      9870      9865      9868      9871      9869      9868      9870
      9869      9868      9871      9870      9868      9871      9868      9871      9872
      9868      9871      9873      9868      9871      9874      9872      9871      9873
      9872      9871      9874      9873      9871      9874      9871      9874      9875
      9871      9874      9876      9871      9874      9877      9875      9874      9876
      9875      9874      9877      9876      9874      9877      9874      9877      9878
      9874      9877      9879      9874      9877      9880      9878      9877      9879
      9878      9877      9880      9879      9877      9880      9831      9881      9882
      9831      9881      9883      9831      9881      9884      9882      9881      9883
      9882      9881      9884      9883      9881      9884      9881      9884      9885
      9881      9884      9886      9881      9884      9887      9885      9884      9886
      9885      9884      9887      9886      9884      9887      9884      9887      9888
      9884      9887      9889      9884      9887      9890      9888      9887      9889
      9888      9887      9890      9889      9887      9890      9887      9890      9891
      9887      9890      9892      9887      9890      9893      9891      9890      9892
      9891      9890      9893      9892      9890      9893      9890      9893      9894
      9890      9893      9895      9890      9893      9896      9894      9893      9895
      9894      9893      9896      9895      9893      9896      9893      9896      9897
      9893      9896      9898      9893      9896      9899      9897      9896      9898
      9897      9896      9899      9898      9896      9899      9896      9899      9900
      9896      9899      9901      9896      9899      9902      9900      9899      9901
      9900      9899      9902      9901      9899      9902      9899      9902      9903
      9899      9902      9904      9899      9902      9905      9903      9902      9904
      9903      9902      9905      9904      9902      9905      9902      9905      9906
      9902      9905      9907      9902      9905      9908      9906      9905      9907
      9906      9905      9908      9907      9905      9908      9905      9908      9909
      9905      9908      9910      9905      9908      9911      9909      9908      9910
      9909      9908      9911      9910      9908      9911      9908      9911      9912
      9908      9911      9913      9908      9911      9914      9912      9911      9913
      9912      9911      9914      9913      9911      9914      9911      9914      9915
      9911      9914      9916      9911      9914      9917      9915      9914      9916
      9915      9914      9917      9916      9914      9917      9914      9917      9918
      9914      9917      9919      9914      9917      9920      9918      9917      9919
      9918      9917      9920      9919      9917      9920      9917      9920      9921
      9917      9920      9922      9917      9920      9923      9921      9920      9922
      9921      9920      9923      9922      9920      9923      9925      9924      9928
      9925      9924      9932      9925      9924      9936      9928      9924      9932
      9928      9924      9936      9932      9924      9936      9924      9925      9926
      9924      9925      9927      9924      9925      9940      9926      9925      9927
      9926      9925      9940      9927      9925      9940      9924      9928      9929
      9924      9928      9930      9924      9928      9931      9929      9928      9930
      9929      9928      9931      9930      9928      9931      9924      9932      9933
      9924      9932      9934      9924      9932      9935      9933      9932      9934
      9933      9932      9935      9934      9932      9935      9924      9936      9937
      9924      9936      9938      9924      9936      9939      9937      9936      9938
      9937      9936      9939      9938      9936      9939      9925      9940      9941
      9925      9940      9942      9925      9940      9946      9941      9940      9942
      9941      9940      9946      9942      9940      9946      9944      9943      9945
      9944      9943      9946      9944      9943      9947      9945      9943      9946
      9945      9943      9947      9946      9943      9947      9940      9946      9943
      9943      9947      9948      9947      9948      9949      9947      9948      9950
      9947      9948      9951      9949      9948      9950      9949      9948      9951
      9950      9948      9951      9948      9951      9952      9948      9951      9953
      9948      9951      9959      9952      9951      9953      9952      9951      9959
      9953      9951      9959      9951      9953      9954      9953      9954      9955
      9953      9954      9956      9955      9954      9956      9954      9956      9957
      9954      9956      9958      9954      9956      9968      9957      9956      9958
      9957      9956      9968      9958      9956      9968      9951      9959      9960
      9951      9959      9961      9951      9959      9962      9960      9959      9961
      9960      9959      9962      9961      9959      9962      9959      9962      9963
      9962      9963      9964      9962      9963      9965      9964      9963      9965
      9963      9965      9966      9963      9965      9967      9963      9965     10015
      9966      9965      9967      9966      9965     10015      9967      9965     10015
      9956      9968      9969      9956      9968      9970      9956      9968      9971
      9969      9968      9970      9969      9968      9971      9970      9968      9971
      9968      9971      9972      9968      9971      9973      9968      9971      9974
      9972      9971      9973      9972      9971      9974      9973      9971      9974
      9971      9974      9975      9971      9974      9976      9971      9974      9977
      9975      9974      9976      9975      9974      9977      9976      9974      9977
      9974      9977      9978      9974      9977      9979      9974      9977      9980
      9978      9977      9979      9978      9977      9980      9979      9977      9980
      9977      9980      9981      9977      9980      9982      9977      9980      9983
      9981      9980      9982      9981      9980      9983      9982      9980      9983
      9980      9983      9984      9980      9983      9985      9980      9983      9986
      9984      9983      9985      9984      9983      9986      9985      9983      9986
      9983      9986      9987      9983      9986      9988      9987      9986      9988
      9986      9988      9989      9986      9988      9990      9989      9988      9990
      9988      9990      9991      9988      9990      9992      9988      9990      9993
      9991      9990      9992      9991      9990      9993      9992      9990      9993
      9990      9993      9994      9990      9993      9995      9990      9993      9996
      9994      9993      9995      9994      9993      9996      9995      9993      9996
      9993      9996      9997      9993      9996      9998      9993      9996      9999
      9997      9996      9998      9997      9996      9999      9998      9996      9999
      9996      9999     10000      9996      9999     10001      9996      9999     10002
     10000      9999     10001     10000      9999     10002     10001      9999     10002
      9999     10002     10003      9999     10002     10004      9999     10002     10005
     10003     10002     10004     10003     10002     10005     10004     10002     10005
     10002     10005     10006     10002     10005     10007     10002     10005     10008
     10006     10005     10007     10006     10005     10008     10007     10005     10008
     10005     10008     10009     10005     10008     10010     10005     10008     10011
     10009     10008     10010     10009     10008     10011     10010     10008     10011
     10008     10011     10012     10008     10011     10013     10008     10011     10014
     10012     10011     10013     10012     10011     10014     10013     10011     10014
      9965     10015     10016      9965     10015     10017      9965     10015     10018
     10016     10015     10017     10016     10015     10018     10017     10015     10018
     10015     10018     10019     10015     10018     10020     10015     10018     10021
     10019     10018     10020     10019     10018     10021     10020     10018     10021
     10018     10021     10022     10018     10021     10023     10018     10021     10024
     10022     10021     10023     10022     10021     10024     10023     10021     10024
     10021     10024     10025     10021     10024     10026     10021     10024     10027
     10025     10024     10026     10025     10024     10027     10026     10024     10027
     10024     10027     10028     10024     10027     10029     10024     10027     10030
     10028     10027     10029     10028     10027     10030     10029     10027     10030
     10027     10030     10031     10027     10030     10032     10027     10030     10033
     10031     10030     10032     10031     10030     10033     10032     10030     10033
     10030     10033     10034     10030     10033     10035     10030     10033     10036
     10034     10033     10035     10034     10033     10036     10035     10033     10036
     10033     10036     10037     10033     10036     10038     10033     10036     10039
     10037     10036     10038     10037     10036     10039     10038     10036     10039
     10036     10039     10040     10036     10039     10041     10036     10039     10042
     10040     10039     10041     10040     10039     10042     10041     10039     10042
     10039     10042     10043     10039     10042     10044     10039     10042     10045
     10043     10042     10044     10043     10042     10045     10044     10042     10045
     10042     10045     10046     10042     10045     10047     10042     10045     10048
     10046     10045     10047     10046     10045     10048     10047     10045     10048
     10045     10048     10049     10045     10048     10050     10045     10048     10051
     10049     10048     10050     10049     10048     10051     10050     10048     10051
     10048     10051     10052     10048     10051     10053     10048     10051     10054
     10052     10051     10053     10052     10051     10054     10053     10051     10054
     10051     10054     10055     10051     10054     10056     10051     10054     10057
     10055     10054     10056     10055     10054     10057     10056     10054     10057
     10059     10058     10060     10059     10058     10061     10059     10058     10062
     10060     10058     10061     10060     10058     10062     10061     10058     10062
     10058     10062     10063     10058     10062     10064     10058     10062     10067
     10063     10062     10064     10063     10062     10067     10064     10062     10067
     10062     10064     10065     10062     10064     10066     10065     10064     10066
     10062     10067     10068     10062     10067     10069     10062     10067     10073
     10068     10067     10069     10068     10067     10073     10069     10067     10073
     10071     10070     10072     10071     10070     10073     10071     10070     10074
     10072     10070     10073     10072     10070     10074     10073     10070     10074
     10067     10073     10070     10070     10074     10075     10074     10075     10076
     10074     10075     10077     10074     10075     10078     10076     10075     10077
     10076     10075     10078     10077     10075     10078     10075     10078     10079
     10075     10078     10080     10075     10078     10086     10079     10078     10080
     10079     10078     10086     10080     10078     10086     10078     10080     10081
     10080     10081     10082     10080     10081     10083     10082     10081     10083
     10081     10083     10084     10081     10083     10085     10081     10083     10095
     10084     10083     10085     10084     10083     10095     10085     10083     10095
     10078     10086     10087     10078     10086     10088     10078     10086     10089
     10087     10086     10088     10087     10086     10089     10088     10086     10089
     10086     10089     10090     10089     10090     10091     10089     10090     10092
     10091     10090     10092     10090     10092     10093     10090     10092     10094
     10090     10092     10142     10093     10092     10094     10093     10092     10142
     10094     10092     10142     10083     10095     10096     10083     10095     10097
     10083     10095     10098     10096     10095     10097     10096     10095     10098
     10097     10095     10098     10095     10098     10099     10095     10098     10100
     10095     10098     10101     10099     10098     10100     10099     10098     10101
     10100     10098     10101     10098     10101     10102     10098     10101     10103
     10098     10101     10104     10102     10101     10103     10102     10101     10104
     10103     10101     10104     10101     10104     10105     10101     10104     10106
     10101     10104     10107     10105     10104     10106     10105     10104     10107
     10106     10104     10107     10104     10107     10108     10104     10107     10109
     10104     10107     10110     10108     10107     10109     10108     10107     10110
     10109     10107     10110     10107     10110     10111     10107     10110     10112
     10107     10110     10113     10111     10110     10112     10111     10110     10113
     10112     10110     10113     10110     10113     10114     10110     10113     10115
     10114     10113     10115     10113     10115     10116     10113     10115     10117
     10116     10115     10117     10115     10117     10118     10115     10117     10119
     10115     10117     10120     10118     10117     10119     10118     10117     10120
     10119     10117     10120     10117     10120     10121     10117     10120     10122
     10117     10120     10123     10121     10120     10122     10121     10120     10123
     10122     10120     10123     10120     10123     10124     10120     10123     10125
     10120     10123     10126     10124     10123     10125     10124     10123     10126
     10125     10123     10126     10123     10126     10127     10123     10126     10128
     10123     10126     10129     10127     10126     10128     10127     10126     10129
     10128     10126     10129     10126     10129     10130     10126     10129     10131
     10126     10129     10132     10130     10129     10131     10130     10129     10132
     10131     10129     10132     10129     10132     10133     10129     10132     10134
     10129     10132     10135     10133     10132     10134     10133     10132     10135
     10134     10132     10135     10132     10135     10136     10132     10135     10137
     10132     10135     10138     10136     10135     10137     10136     10135     10138
     10137     10135     10138     10135     10138     10139     10135     10138     10140
     10135     10138     10141     10139     10138     10140     10139     10138     10141
     10140     10138     10141     10092     10142     10143     10092     10142     10144
     10092     10142     10145     10143     10142     10144     10143     10142     10145
     10144     10142     10145     10142     10145     10146     10142     10145     10147
     10142     10145     10148     10146     10145     10147     10146     10145     10148
     10147     10145     10148     10145     10148     10149     10145     10148     10150
     10145     10148     10151     10149     10148     10150     10149     10148     10151
     10150     10148     10151     10148     10151     10152     10148     10151     10153
     10148     10151     10154     10152     10151     10153     10152     10151     10154
     10153     10151     10154     10151     10154     10155     10151     10154     10156
     10151     10154     10157     10155     10154     10156     10155     10154     10157
     10156     10154     10157     10154     10157     10158     10154     10157     10159
     10154     10157     10160     10158     10157     10159     10158     10157     10160
     10159     10157     10160     10157     10160     10161     10157     10160     10162
     10157     10160     10163     10161     10160     10162     10161     10160     10163
     10162     10160     10163     10160     10163     10164     10160     10163     10165
     10160     10163     10166     10164     10163     10165     10164     10163     10166
     10165     10163     10166     10163     10166     10167     10163     10166     10168
     10163     10166     10169     10167     10166     10168     10167     10166     10169
     10168     10166     10169     10166     10169     10170     10166     10169     10171
     10166     10169     10172     10170     10169     10171     10170     10169     10172
     10171     10169     10172     10169     10172     10173     10169     10172     10174
     10169     10172     10175     10173     10172     10174     10173     10172     10175
     10174     10172     10175     10172     10175     10176     10172     10175     10177
     10172     10175     10178     10176     10175     10177     10176     10175     10178
     10177     10175     10178     10175     10178     10179     10175     10178     10180
     10175     10178     10181     10179     10178     10180     10179     10178     10181
     10180     10178     10181     10178     10181     10182     10178     10181     10183
     10178     10181     10184     10182     10181     10183     10182     10181     10184
     10183     10181     10184     10186     10185     10189     10186     10185     10193
     10186     10185     10197     10189     10185     10193     10189     10185     10197
     10193     10185     10197     10185     10186     10187     10185     10186     10188
     10185     10186     10201     10187     10186     10188     10187     10186     10201
     10188     10186     10201     10185     10189     10190     10185     10189     10191
     10185     10189     10192     10190     10189     10191     10190     10189     10192
     10191     10189     10192     10185     10193     10194     10185     10193     10195
     10185     10193     10196     10194     10193     10195     10194     10193     10196
     10195     10193     10196     10185     10197     10198     10185     10197     10199
     10185     10197     10200     10198     10197     10199     10198     10197     10200
     10199     10197     10200     10186     10201     10202     10186     10201     10203
     10186     10201     10207     10202     10201     10203     10202     10201     10207
     10203     10201     10207     10205     10204     10206     10205     10204     10207
     10205     10204     10208     10206     10204     10207     10206     10204     10208
     10207     10204     10208     10201     10207     10204     10204     10208     10209
     10208     10209     10210     10208     10209     10211     10208     10209     10212
     10210     10209     10211     10210     10209     10212     10211     10209     10212
     10209     10212     10213     10209     10212     10214     10209     10212     10220
     10213     10212     10214     10213     10212     10220     10214     10212     10220
     10212     10214     10215     10214     10215     10216     10214     10215     10217
     10216     10215     10217     10215     10217     10218     10215     10217     10219
     10215     10217     10229     10218     10217     10219     10218     10217     10229
     10219     10217     10229     10212     10220     10221     10212     10220     10222
     10212     10220     10223     10221     10220     10222     10221     10220     10223
     10222     10220     10223     10220     10223     10224     10223     10224     10225
     10223     10224     10226     10225     10224     10226     10224     10226     10227
     10224     10226     10228     10224     10226     10276     10227     10226     10228
     10227     10226     10276     10228     10226     10276     10217     10229     10230
     10217     10229     10231     10217     10229     10232     10230     10229     10231
     10230     10229     10232     10231     10229     10232     10229     10232     10233
     10229     10232     10234     10229     10232     10235     10233     10232     10234
     10233     10232     10235     10234     10232     10235     10232     10235     10236
     10232     10235     10237     10232     10235     10238     10236     10235     10237
     10236     10235     10238     10237     10235     10238     10235     10238     10239
     10235     10238     10240     10235     10238     10241     10239     10238     10240
     10239     10238     10241     10240     10238     10241     10238     10241     10242
     10238     10241     10243     10238     10241     10244     10242     10241     10243
     10242     10241     10244     10243     10241     10244     10241     10244     10245
     10241     10244     10246     10241     10244     10247     10245     10244     10246
     10245     10244     10247     10246     10244     10247     10244     10247     10248
     10244     10247     10249     10248     10247     10249     10247     10249     10250
     10247     10249     10251     10250     10249     10251     10249     10251     10252
     10249     10251     10253     10249     10251     10254     10252     10251     10253
     10252     10251     10254     10253     10251     10254     10251     10254     10255
     10251     10254     10256     10251     10254     10257     10255     10254     10256
     10255     10254     10257     10256     10254     10257     10254     10257     10258
     10254     10257     10259     10254     10257     10260     10258     10257     10259
     10258     10257     10260     10259     10257     10260     10257     10260     10261
     10257     10260     10262     10257     10260     10263     10261     10260     10262
     10261     10260     10263     10262     10260     10263     10260     10263     10264
     10260     10263     10265     10260     10263     10266     10264     10263     10265
     10264     10263     10266     10265     10263     10266     10263     10266     10267
     10263     10266     10268     10263     10266     10269     10267     10266     10268
     10267     10266     10269     10268     10266     10269     10266     10269     10270
     10266     10269     10271     10266     10269     10272     10270     10269     10271
     10270     10269     10272     10271     10269     10272     10269     10272     10273
     10269     10272     10274     10269     10272     10275     10273     10272     10274
     10273     10272     10275     10274     10272     10275     10226     10276     10277
     10226     10276     10278     10226     10276     10279     10277     10276     10278
     10277     10276     10279     10278     10276     10279     10276     10279     10280
     10276     10279     10281     10276     10279     10282     10280     10279     10281
     10280     10279     10282     10281     10279     10282     10279     10282     10283
     10279     10282     10284     10279     10282     10285     10283     10282     10284
     10283     10282     10285     10284     10282     10285     10282     10285     10286
     10282     10285     10287     10282     10285     10288     10286     10285     10287
     10286     10285     10288     10287     10285     10288     10285     10288     10289
     10285     10288     10290     10285     10288     10291     10289     10288     10290
     10289     10288     10291     10290     10288     10291     10288     10291     10292
     10288     10291     10293     10288     10291     10294     10292     10291     10293
     10292     10291     10294     10293     10291     10294     10291     10294     10295
     10291     10294     10296     10291     10294     10297     10295     10294     10296
     10295     10294     10297     10296     10294     10297     10294     10297     10298
     10294     10297     10299     10294     10297     10300     10298     10297     10299
     10298     10297     10300     10299     10297     10300     10297     10300     10301
     10297     10300     10302     10297     10300     10303     10301     10300     10302
     10301     10300     10303     10302     10300     10303     10300     10303     10304
     10300     10303     10305     10300     10303     10306     10304     10303     10305
     10304     10303     10306     10305     10303     10306     10303     10306     10307
     10303     10306     10308     10303     10306     10309     10307     10306     10308
     10307     10306     10309     10308     10306     10309     10306     10309     10310
     10306     10309     10311     10306     10309     10312     10310     10309     10311
     10310     10309     10312     10311     10309     10312     10309     10312     10313
     10309     10312     10314     10309     10312     10315     10313     10312     10314
     10313     10312     10315     10314     10312     10315     10312     10315     10316
     10312     10315     10317     10312     10315     10318     10316     10315     10317
     10316     10315     10318     10317     10315     10318     10320     10319     10321
     10320     10319     10322     10320     10319     10323     10321     10319     10322
     10321     10319     10323     10322     10319     10323     10319     10323     10324
     10319     10323     10325     10319     10323     10328     10324     10323     10325
     10324     10323     10328     10325     10323     10328     10323     10325     10326
     10323     10325     10327     10326     10325     10327     10323     10328     10329
     10323     10328     10330     10323     10328     10334     10329     10328     10330
     10329     10328     10334     10330     10328     10334     10332     10331     10333
     10332     10331     10334     10332     10331     10335     10333     10331     10334
     10333     10331     10335     10334     10331     10335     10328     10334     10331
     10331     10335     10336     10335     10336     10337     10335     10336     10338
     10335     10336     10339     10337     10336     10338     10337     10336     10339
     10338     10336     10339     10336     10339     10340     10336     10339     10341
     10336     10339     10347     10340     10339     10341     10340     10339     10347
     10341     10339     10347     10339     10341     10342     10341     10342     10343
     10341     10342     10344     10343     10342     10344     10342     10344     10345
     10342     10344     10346     10342     10344     10356     10345     10344     10346
     10345     10344     10356     10346     10344     10356     10339     10347     10348
     10339     10347     10349     10339     10347     10350     10348     10347     10349
     10348     10347     10350     10349     10347     10350     10347     10350     10351
     10350     10351     10352     10350     10351     10353     10352     10351     10353
     10351     10353     10354     10351     10353     10355     10351     10353     10403
     10354     10353     10355     10354     10353     10403     10355     10353     10403
     10344     10356     10357     10344     10356     10358     10344     10356     10359
     10357     10356     10358     10357     10356     10359     10358     10356     10359
     10356     10359     10360     10356     10359     10361     10356     10359     10362
     10360     10359     10361     10360     10359     10362     10361     10359     10362
     10359     10362     10363     10359     10362     10364     10359     10362     10365
     10363     10362     10364     10363     10362     10365     10364     10362     10365
     10362     10365     10366     10362     10365     10367     10362     10365     10368
     10366     10365     10367     10366     10365     10368     10367     10365     10368
     10365     10368     10369     10365     10368     10370     10365     10368     10371
     10369     10368     10370     10369     10368     10371     10370     10368     10371
     10368     10371     10372     10368     10371     10373     10368     10371     10374
     10372     10371     10373     10372     10371     10374     10373     10371     10374
     10371     10374     10375     10371     10374     10376     10375     10374     10376
     10374     10376     10377     10374     10376     10378     10377     10376     10378
     10376     10378     10379     10376     10378     10380     10376     10378     10381
     10379     10378     10380     10379     10378     10381     10380     10378     10381
     10378     10381     10382     10378     10381     10383     10378     10381     10384
     10382     10381     10383     10382     10381     10384     10383     10381     10384
     10381     10384     10385     10381     10384     10386     10381     10384     10387
     10385     10384     10386     10385     10384     10387     10386     10384     10387
     10384     10387     10388     10384     10387     10389     10384     10387     10390
     10388     10387     10389     10388     10387     10390     10389     10387     10390
     10387     10390     10391     10387     10390     10392     10387     10390     10393
     10391     10390     10392     10391     10390     10393     10392     10390     10393
     10390     10393     10394     10390     10393     10395     10390     10393     10396
     10394     10393     10395     10394     10393     10396     10395     10393     10396
     10393     10396     10397     10393     10396     10398     10393     10396     10399
     10397     10396     10398     10397     10396     10399     10398     10396     10399
     10396     10399     10400     10396     10399     10401     10396     10399     10402
     10400     10399     10401     10400     10399     10402     10401     10399     10402
     10353     10403     10404     10353     10403     10405     10353     10403     10406
     10404     10403     10405     10404     10403     10406     10405     10403     10406
     10403     10406     10407     10403     10406     10408     10403     10406     10409
     10407     10406     10408     10407     10406     10409     10408     10406     10409
     10406     10409     10410     10406     10409     10411     10406     10409     10412
     10410     10409     10411     10410     10409     10412     10411     10409     10412
     10409     10412     10413     10409     10412     10414     10409     10412     10415
     10413     10412     10414     10413     10412     10415     10414     10412     10415
     10412     10415     10416     10412     10415     10417     10412     10415     10418
     10416     10415     10417     10416     10415     10418     10417     10415     10418
     10415     10418     10419     10415     10418     10420     10415     10418     10421
     10419     10418     10420     10419     10418     10421     10420     10418     10421
     10418     10421     10422     10418     10421     10423     10418     10421     10424
     10422     10421     10423     10422     10421     10424     10423     10421     10424
     10421     10424     10425     10421     10424     10426     10421     10424     10427
     10425     10424     10426     10425     10424     10427     10426     10424     10427
     10424     10427     10428     10424     10427     10429     10424     10427     10430
     10428     10427     10429     10428     10427     10430     10429     10427     10430
     10427     10430     10431     10427     10430     10432     10427     10430     10433
     10431     10430     10432     10431     10430     10433     10432     10430     10433
     10430     10433     10434     10430     10433     10435     10430     10433     10436
     10434     10433     10435     10434     10433     10436     10435     10433     10436
     10433     10436     10437     10433     10436     10438     10433     10436     10439
     10437     10436     10438     10437     10436     10439     10438     10436     10439
     10436     10439     10440     10436     10439     10441     10436     10439     10442
     10440     10439     10441     10440     10439     10442     10441     10439     10442
     10439     10442     10443     10439     10442     10444     10439     10442     10445
     10443     10442     10444     10443     10442     10445     10444     10442     10445
     10447     10446     10448     10447     10446     10449     10447     10446     10450
     10448     10446     10449     10448     10446     10450     10449     10446     10450
     10446     10450     10451     10446     10450     10452     10446     10450     10455
     10451     10450     10452     10451     10450     10455     10452     10450     10455
     10450     10452     10453     10450     10452     10454     10453     10452     10454
     10450     10455     10456     10450     10455     10457     10450     10455     10461
     10456     10455     10457     10456     10455     10461     10457     10455     10461
     10459     10458     10460     10459     10458     10461     10459     10458     10462
     10460     10458     10461     10460     10458     10462     10461     10458     10462
     10455     10461     10458     10458     10462     10463     10462     10463     10464
     10462     10463     10465     10462     10463     10466     10464     10463     10465
     10464     10463     10466     10465     10463     10466     10463     10466     10467
     10463     10466     10468     10463     10466     10474     10467     10466     10468
     10467     10466     10474     10468     10466     10474     10466     10468     10469
     10468     10469     10470     10468     10469     10471     10470     10469     10471
     10469     10471     10472     10469     10471     10473     10469     10471     10483
     10472     10471     10473     10472     10471     10483     10473     10471     10483
     10466     10474     10475     10466     10474     10476     10466     10474     10477
     10475     10474     10476     10475     10474     10477     10476     10474     10477
     10474     10477     10478     10477     10478     10479     10477     10478     10480
     10479     10478     10480     10478     10480     10481     10478     10480     10482
     10478     10480     10530     10481     10480     10482     10481     10480     10530
     10482     10480     10530     10471     10483     10484     10471     10483     10485
     10471     10483     10486     10484     10483     10485     10484     10483     10486
     10485     10483     10486     10483     10486     10487     10483     10486     10488
     10483     10486     10489     10487     10486     10488     10487     10486     10489
     10488     10486     10489     10486     10489     10490     10486     10489     10491
     10486     10489     10492     10490     10489     10491     10490     10489     10492
     10491     10489     10492     10489     10492     10493     10489     10492     10494
     10489     10492     10495     10493     10492     10494     10493     10492     10495
     10494     10492     10495     10492     10495     10496     10492     10495     10497
     10492     10495     10498     10496     10495     10497     10496     10495     10498
     10497     10495     10498     10495     10498     10499     10495     10498     10500
     10495     10498     10501     10499     10498     10500     10499     10498     10501
     10500     10498     10501     10498     10501     10502     10498     10501     10503
     10502     10501     10503     10501     10503     10504     10501     10503     10505
     10504     10503     10505     10503     10505     10506     10503     10505     10507
     10503     10505     10508     10506     10505     10507     10506     10505     10508
     10507     10505     10508     10505     10508     10509     10505     10508     10510
     10505     10508     10511     10509     10508     10510     10509     10508     10511
     10510     10508     10511     10508     10511     10512     10508     10511     10513
     10508     10511     10514     10512     10511     10513     10512     10511     10514
     10513     10511     10514     10511     10514     10515     10511     10514     10516
     10511     10514     10517     10515     10514     10516     10515     10514     10517
     10516     10514     10517     10514     10517     10518     10514     10517     10519
     10514     10517     10520     10518     10517     10519     10518     10517     10520
     10519     10517     10520     10517     10520     10521     10517     10520     10522
     10517     10520     10523     10521     10520     10522     10521     10520     10523
     10522     10520     10523     10520     10523     10524     10520     10523     10525
     10520     10523     10526     10524     10523     10525     10524     10523     10526
     10525     10523     10526     10523     10526     10527     10523     10526     10528
     10523     10526     10529     10527     10526     10528     10527     10526     10529
     10528     10526     10529     10480     10530     10531     10480     10530     10532
     10480     10530     10533     10531     10530     10532     10531     10530     10533
     10532     10530     10533     10530     10533     10534     10530     10533     10535
     10530     10533     10536     10534     10533     10535     10534     10533     10536
     10535     10533     10536     10533     10536     10537     10533     10536     10538
     10533     10536     10539     10537     10536     10538     10537     10536     10539
     10538     10536     10539     10536     10539     10540     10536     10539     10541
     10536     10539     10542     10540     10539     10541     10540     10539     10542
     10541     10539     10542     10539     10542     10543     10539     10542     10544
     10539     10542     10545     10543     10542     10544     10543     10542     10545
     10544     10542     10545     10542     10545     10546     10542     10545     10547
     10542     10545     10548     10546     10545     10547     10546     10545     10548
     10547     10545     10548     10545     10548     10549     10545     10548     10550
     10545     10548     10551     10549     10548     10550     10549     10548     10551
     10550     10548     10551     10548     10551     10552     10548     10551     10553
     10548     10551     10554     10552     10551     10553     10552     10551     10554
     10553     10551     10554     10551     10554     10555     10551     10554     10556
     10551     10554     10557     10555     10554     10556     10555     10554     10557
     10556     10554     10557     10554     10557     10558     10554     10557     10559
     10554     10557     10560     10558     10557     10559     10558     10557     10560
     10559     10557     10560     10557     10560     10561     10557     10560     10562
     10557     10560     10563     10561     10560     10562     10561     10560     10563
     10562     10560     10563     10560     10563     10564     10560     10563     10565
     10560     10563     10566     10564     10563     10565     10564     10563     10566
     10565     10563     10566     10563     10566     10567     10563     10566     10568
     10563     10566     10569     10567     10566     10568     10567     10566     10569
     10568     10566     10569     10566     10569     10570     10566     10569     10571
     10566     10569     10572     10570     10569     10571     10570     10569     10572
     10571     10569     10572     10574     10573     10577     10574     10573     10581
     10574     10573     10585     10577     10573     10581     10577     10573     10585
     10581     10573     10585     10573     10574     10575     10573     10574     10576
     10573     10574     10589     10575     10574     10576     10575     10574     10589
     10576     10574     10589     10573     10577     10578     10573     10577     10579
     10573     10577     10580     10578     10577     10579     10578     10577     10580
     10579     10577     10580     10573     10581     10582     10573     10581     10583
     10573     10581     10584     10582     10581     10583     10582     10581     10584
     10583     10581     10584     10573     10585     10586     10573     10585     10587
     10573     10585     10588     10586     10585     10587     10586     10585     10588
     10587     10585     10588     10574     10589     10590     10574     10589     10591
     10574     10589     10595     10590     10589     10591     10590     10589     10595
     10591     10589     10595     10593     10592     10594     10593     10592     10595
     10593     10592     10596     10594     10592     10595     10594     10592     10596
     10595     10592     10596     10589     10595     10592     10592     10596     10597
     10596     10597     10598     10596     10597     10599     10596     10597     10600
     10598     10597     10599     10598     10597     10600     10599     10597     10600
     10597     10600     10601     10597     10600     10602     10597     10600     10608
     10601     10600     10602     10601     10600     10608     10602     10600     10608
     10600     10602     10603     10602     10603     10604     10602     10603     10605
     10604     10603     10605     10603     10605     10606     10603     10605     10607
     10603     10605     10617     10606     10605     10607     10606     10605     10617
     10607     10605     10617     10600     10608     10609     10600     10608     10610
     10600     10608     10611     10609     10608     10610     10609     10608     10611
     10610     10608     10611     10608     10611     10612     10611     10612     10613
     10611     10612     10614     10613     10612     10614     10612     10614     10615
     10612     10614     10616     10612     10614     10664     10615     10614     10616
     10615     10614     10664     10616     10614     10664     10605     10617     10618
     10605     10617     10619     10605     10617     10620     10618     10617     10619
     10618     10617     10620     10619     10617     10620     10617     10620     10621
     10617     10620     10622     10617     10620     10623     10621     10620     10622
     10621     10620     10623     10622     10620     10623     10620     10623     10624
     10620     10623     10625     10620     10623     10626     10624     10623     10625
     10624     10623     10626     10625     10623     10626     10623     10626     10627
     10623     10626     10628     10623     10626     10629     10627     10626     10628
     10627     10626     10629     10628     10626     10629     10626     10629     10630
     10626     10629     10631     10626     10629     10632     10630     10629     10631
     10630     10629     10632     10631     10629     10632     10629     10632     10633
     10629     10632     10634     10629     10632     10635     10633     10632     10634
     10633     10632     10635     10634     10632     10635     10632     10635     10636
     10632     10635     10637     10636     10635     10637     10635     10637     10638
     10635     10637     10639     10638     10637     10639     10637     10639     10640
     10637     10639     10641     10637     10639     10642     10640     10639     10641
     10640     10639     10642     10641     10639     10642     10639     10642     10643
     10639     10642     10644     10639     10642     10645     10643     10642     10644
     10643     10642     10645     10644     10642     10645     10642     10645     10646
     10642     10645     10647     10642     10645     10648     10646     10645     10647
     10646     10645     10648     10647     10645     10648     10645     10648     10649
     10645     10648     10650     10645     10648     10651     10649     10648     10650
     10649     10648     10651     10650     10648     10651     10648     10651     10652
     10648     10651     10653     10648     10651     10654     10652     10651     10653
     10652     10651     10654     10653     10651     10654     10651     10654     10655
     10651     10654     10656     10651     10654     10657     10655     10654     10656
     10655     10654     10657     10656     10654     10657     10654     10657     10658
     10654     10657     10659     10654     10657     10660     10658     10657     10659
     10658     10657     10660     10659     10657     10660     10657     10660     10661
     10657     10660     10662     10657     10660     10663     10661     10660     10662
     10661     10660     10663     10662     10660     10663     10614     10664     10665
     10614     10664     10666     10614     10664     10667     10665     10664     10666
     10665     10664     10667     10666     10664     10667     10664     10667     10668
     10664     10667     10669     10664     10667     10670     10668     10667     10669
     10668     10667     10670     10669     10667     10670     10667     10670     10671
     10667     10670     10672     10667     10670     10673     10671     10670     10672
     10671     10670     10673     10672     10670     10673     10670     10673     10674
     10670     10673     10675     10670     10673     10676     10674     10673     10675
     10674     10673     10676     10675     10673     10676     10673     10676     10677
     10673     10676     10678     10673     10676     10679     10677     10676     10678
     10677     10676     10679     10678     10676     10679     10676     10679     10680
     10676     10679     10681     10676     10679     10682     10680     10679     10681
     10680     10679     10682     10681     10679     10682     10679     10682     10683
     10679     10682     10684     10679     10682     10685     10683     10682     10684
     10683     10682     10685     10684     10682     10685     10682     10685     10686
     10682     10685     10687     10682     10685     10688     10686     10685     10687
     10686     10685     10688     10687     10685     10688     10685     10688     10689
     10685     10688     10690     10685     10688     10691     10689     10688     10690
     10689     10688     10691     10690     10688     10691     10688     10691     10692
     10688     10691     10693     10688     10691     10694     10692     10691     10693
     10692     10691     10694     10693     10691     10694     10691     10694     10695
     10691     10694     10696     10691     10694     10697     10695     10694     10696
     10695     10694     10697     10696     10694     10697     10694     10697     10698
     10694     10697     10699     10694     10697     10700     10698     10697     10699
     10698     10697     10700     10699     10697     10700     10697     10700     10701
     10697     10700     10702     10697     10700     10703     10701     10700     10702
     10701     10700     10703     10702     10700     10703     10700     10703     10704
     10700     10703     10705     10700     10703     10706     10704     10703     10705
     10704     10703     10706     10705     10703     10706     10708     10707     10711
     10708     10707     10715     10708     10707     10719     10711     10707     10715
     10711     10707     10719     10715     10707     10719     10707     10708     10709
     10707     10708     10710     10707     10708     10723     10709     10708     10710
     10709     10708     10723     10710     10708     10723     10707     10711     10712
     10707     10711     10713     10707     10711     10714     10712     10711     10713
     10712     10711     10714     10713     10711     10714     10707     10715     10716
     10707     10715     10717     10707     10715     10718     10716     10715     10717
     10716     10715     10718     10717     10715     10718     10707     10719     10720
     10707     10719     10721     10707     10719     10722     10720     10719     10721
     10720     10719     10722     10721     10719     10722     10708     10723     10724
     10708     10723     10725     10708     10723     10729     10724     10723     10725
     10724     10723     10729     10725     10723     10729     10727     10726     10728
     10727     10726     10729     10727     10726     10730     10728     10726     10729
     10728     10726     10730     10729     10726     10730     10723     10729     10726
     10726     10730     10731     10730     10731     10732     10730     10731     10733
     10730     10731     10734     10732     10731     10733     10732     10731     10734
     10733     10731     10734     10731     10734     10735     10731     10734     10736
     10731     10734     10742     10735     10734     10736     10735     10734     10742
     10736     10734     10742     10734     10736     10737     10736     10737     10738
     10736     10737     10739     10738     10737     10739     10737     10739     10740
     10737     10739     10741     10737     10739     10751     10740     10739     10741
     10740     10739     10751     10741     10739     10751     10734     10742     10743
     10734     10742     10744     10734     10742     10745     10743     10742     10744
     10743     10742     10745     10744     10742     10745     10742     10745     10746
     10745     10746     10747     10745     10746     10748     10747     10746     10748
     10746     10748     10749     10746     10748     10750     10746     10748     10798
     10749     10748     10750     10749     10748     10798     10750     10748     10798
     10739     10751     10752     10739     10751     10753     10739     10751     10754
     10752     10751     10753     10752     10751     10754     10753     10751     10754
     10751     10754     10755     10751     10754     10756     10751     10754     10757
     10755     10754     10756     10755     10754     10757     10756     10754     10757
     10754     10757     10758     10754     10757     10759     10754     10757     10760
     10758     10757     10759     10758     10757     10760     10759     10757     10760
     10757     10760     10761     10757     10760     10762     10757     10760     10763
     10761     10760     10762     10761     10760     10763     10762     10760     10763
     10760     10763     10764     10760     10763     10765     10760     10763     10766
     10764     10763     10765     10764     10763     10766     10765     10763     10766
     10763     10766     10767     10763     10766     10768     10763     10766     10769
     10767     10766     10768     10767     10766     10769     10768     10766     10769
     10766     10769     10770     10766     10769     10771     10770     10769     10771
     10769     10771     10772     10769     10771     10773     10772     10771     10773
     10771     10773     10774     10771     10773     10775     10771     10773     10776
     10774     10773     10775     10774     10773     10776     10775     10773     10776
     10773     10776     10777     10773     10776     10778     10773     10776     10779
     10777     10776     10778     10777     10776     10779     10778     10776     10779
     10776     10779     10780     10776     10779     10781     10776     10779     10782
     10780     10779     10781     10780     10779     10782     10781     10779     10782
     10779     10782     10783     10779     10782     10784     10779     10782     10785
     10783     10782     10784     10783     10782     10785     10784     10782     10785
     10782     10785     10786     10782     10785     10787     10782     10785     10788
     10786     10785     10787     10786     10785     10788     10787     10785     10788
     10785     10788     10789     10785     10788     10790     10785     10788     10791
     10789     10788     10790     10789     10788     10791     10790     10788     10791
     10788     10791     10792     10788     10791     10793     10788     10791     10794
     10792     10791     10793     10792     10791     10794     10793     10791     10794
     10791     10794     10795     10791     10794     10796     10791     10794     10797
     10795     10794     10796     10795     10794     10797     10796     10794     10797
     10748     10798     10799     10748     10798     10800     10748     10798     10801
     10799     10798     10800     10799     10798     10801     10800     10798     10801
     10798     10801     10802     10798     10801     10803     10798     10801     10804
     10802     10801     10803     10802     10801     10804     10803     10801     10804
     10801     10804     10805     10801     10804     10806     10801     10804     10807
     10805     10804     10806     10805     10804     10807     10806     10804     10807
     10804     10807     10808     10804     10807     10809     10804     10807     10810
     10808     10807     10809     10808     10807     10810     10809     10807     10810
     10807     10810     10811     10807     10810     10812     10807     10810     10813
     10811     10810     10812     10811     10810     10813     10812     10810     10813
     10810     10813     10814     10810     10813     10815     10810     10813     10816
     10814     10813     10815     10814     10813     10816     10815     10813     10816
     10813     10816     10817     10813     10816     10818     10813     10816     10819
     10817     10816     10818     10817     10816     10819     10818     10816     10819
     10816     10819     10820     10816     10819     10821     10816     10819     10822
     10820     10819     10821     10820     10819     10822     10821     10819     10822
     10819     10822     10823     10819     10822     10824     10819     10822     10825
     10823     10822     10824     10823     10822     10825     10824     10822     10825
     10822     10825     10826     10822     10825     10827     10822     10825     10828
     10826     10825     10827     10826     10825     10828     10827     10825     10828
     10825     10828     10829     10825     10828     10830     10825     10828     10831
     10829     10828     10830     10829     10828     10831     10830     10828     10831
     10828     10831     10832     10828     10831     10833     10828     10831     10834
     10832     10831     10833     10832     10831     10834     10833     10831     10834
     10831     10834     10835     10831     10834     10836     10831     10834     10837
     10835     10834     10836     10835     10834     10837     10836     10834     10837
     10834     10837     10838     10834     10837     10839     10834     10837     10840
     10838     10837     10839     10838     10837     10840     10839     10837     10840
     10842     10841     10843     10842     10841     10844     10842     10841     10845
     10843     10841     10844     10843     10841     10845     10844     10841     10845
     10841     10845     10846     10841     10845     10847     10841     10845     10850
     10846     10845     10847     10846     10845     10850     10847     10845     10850
     10845     10847     10848     10845     10847     10849     10848     10847     10849
     10845     10850     10851     10845     10850     10852     10845     10850     10856
     10851     10850     10852     10851     10850     10856     10852     10850     10856
     10854     10853     10855     10854     10853     10856     10854     10853     10857
     10855     10853     10856     10855     10853     10857     10856     10853     10857
     10850     10856     10853     10853     10857     10858     10857     10858     10859
     10857     10858     10860     10857     10858     10861     10859     10858     10860
     10859     10858     10861     10860     10858     10861     10858     10861     10862
     10858     10861     10863     10858     10861     10869     10862     10861     10863
     10862     10861     10869     10863     10861     10869     10861     10863     10864
     10863     10864     10865     10863     10864     10866     10865     10864     10866
     10864     10866     10867     10864     10866     10868     10864     10866     10878
     10867     10866     10868     10867     10866     10878     10868     10866     10878
     10861     10869     10870     10861     10869     10871     10861     10869     10872
     10870     10869     10871     10870     10869     10872     10871     10869     10872
     10869     10872     10873     10872     10873     10874     10872     10873     10875
     10874     10873     10875     10873     10875     10876     10873     10875     10877
     10873     10875     10925     10876     10875     10877     10876     10875     10925
     10877     10875     10925     10866     10878     10879     10866     10878     10880
     10866     10878     10881     10879     10878     10880     10879     10878     10881
     10880     10878     10881     10878     10881     10882     10878     10881     10883
     10878     10881     10884     10882     10881     10883     10882     10881     10884
     10883     10881     10884     10881     10884     10885     10881     10884     10886
     10881     10884     10887     10885     10884     10886     10885     10884     10887
     10886     10884     10887     10884     10887     10888     10884     10887     10889
     10884     10887     10890     10888     10887     10889     10888     10887     10890
     10889     10887     10890     10887     10890     10891     10887     10890     10892
     10887     10890     10893     10891     10890     10892     10891     10890     10893
     10892     10890     10893     10890     10893     10894     10890     10893     10895
     10890     10893     10896     10894     10893     10895     10894     10893     10896
     10895     10893     10896     10893     10896     10897     10893     10896     10898
     10897     10896     10898     10896     10898     10899     10896     10898     10900
     10899     10898     10900     10898     10900     10901     10898     10900     10902
     10898     10900     10903     10901     10900     10902     10901     10900     10903
     10902     10900     10903     10900     10903     10904     10900     10903     10905
     10900     10903     10906     10904     10903     10905     10904     10903     10906
     10905     10903     10906     10903     10906     10907     10903     10906     10908
     10903     10906     10909     10907     10906     10908     10907     10906     10909
     10908     10906     10909     10906     10909     10910     10906     10909     10911
     10906     10909     10912     10910     10909     10911     10910     10909     10912
     10911     10909     10912     10909     10912     10913     10909     10912     10914
     10909     10912     10915     10913     10912     10914     10913     10912     10915
     10914     10912     10915     10912     10915     10916     10912     10915     10917
     10912     10915     10918     10916     10915     10917     10916     10915     10918
     10917     10915     10918     10915     10918     10919     10915     10918     10920
     10915     10918     10921     10919     10918     10920     10919     10918     10921
     10920     10918     10921     10918     10921     10922     10918     10921     10923
     10918     10921     10924     10922     10921     10923     10922     10921     10924
     10923     10921     10924     10875     10925     10926     10875     10925     10927
     10875     10925     10928     10926     10925     10927     10926     10925     10928
     10927     10925     10928     10925     10928     10929     10925     10928     10930
     10925     10928     10931     10929     10928     10930     10929     10928     10931
     10930     10928     10931     10928     10931     10932     10928     10931     10933
     10928     10931     10934     10932     10931     10933     10932     10931     10934
     10933     10931     10934     10931     10934     10935     10931     10934     10936
     10931     10934     10937     10935     10934     10936     10935     10934     10937
     10936     10934     10937     10934     10937     10938     10934     10937     10939
     10934     10937     10940     10938     10937     10939     10938     10937     10940
     10939     10937     10940     10937     10940     10941     10937     10940     10942
     10937     10940     10943     10941     10940     10942     10941     10940     10943
     10942     10940     10943     10940     10943     10944     10940     10943     10945
     10940     10943     10946     10944     10943     10945     10944     10943     10946
     10945     10943     10946     10943     10946     10947     10943     10946     10948
     10943     10946     10949     10947     10946     10948     10947     10946     10949
     10948     10946     10949     10946     10949     10950     10946     10949     10951
     10946     10949     10952     10950     10949     10951     10950     10949     10952
     10951     10949     10952     10949     10952     10953     10949     10952     10954
     10949     10952     10955     10953     10952     10954     10953     10952     10955
     10954     10952     10955     10952     10955     10956     10952     10955     10957
     10952     10955     10958     10956     10955     10957     10956     10955     10958
     10957     10955     10958     10955     10958     10959     10955     10958     10960
     10955     10958     10961     10959     10958     10960     10959     10958     10961
     10960     10958     10961     10958     10961     10962     10958     10961     10963
     10958     10961     10964     10962     10961     10963     10962     10961     10964
     10963     10961     10964     10961     10964     10965     10961     10964     10966
     10961     10964     10967     10965     10964     10966     10965     10964     10967
     10966     10964     10967     10969     10968     10972     10969     10968     10976
     10969     10968     10980     10972     10968     10976     10972     10968     10980
     10976     10968     10980     10968     10969     10970     10968     10969     10971
     10968     10969     10984     10970     10969     10971     10970     10969     10984
     10971     10969     10984     10968     10972     10973     10968     10972     10974
     10968     10972     10975     10973     10972     10974     10973     10972     10975
     10974     10972     10975     10968     10976     10977     10968     10976     10978
     10968     10976     10979     10977     10976     10978     10977     10976     10979
     10978     10976     10979     10968     10980     10981     10968     10980     10982
     10968     10980     10983     10981     10980     10982     10981     10980     10983
     10982     10980     10983     10969     10984     10985     10969     10984     10986
     10969     10984     10990     10985     10984     10986     10985     10984     10990
     10986     10984     10990     10988     10987     10989     10988     10987     10990
     10988     10987     10991     10989     10987     10990     10989     10987     10991
     10990     10987     10991     10984     10990     10987     10987     10991     10992
     10991     10992     10993     10991     10992     10994     10991     10992     10995
     10993     10992     10994     10993     10992     10995     10994     10992     10995
     10992     10995     10996     10992     10995     10997     10992     10995     11003
     10996     10995     10997     10996     10995     11003     10997     10995     11003
     10995     10997     10998     10997     10998     10999     10997     10998     11000
     10999     10998     11000     10998     11000     11001     10998     11000     11002
     10998     11000     11012     11001     11000     11002     11001     11000     11012
     11002     11000     11012     10995     11003     11004     10995     11003     11005
     10995     11003     11006     11004     11003     11005     11004     11003     11006
     11005     11003     11006     11003     11006     11007     11006     11007     11008
     11006     11007     11009     11008     11007     11009     11007     11009     11010
     11007     11009     11011     11007     11009     11059     11010     11009     11011
     11010     11009     11059     11011     11009     11059     11000     11012     11013
     11000     11012     11014     11000     11012     11015     11013     11012     11014
     11013     11012     11015     11014     11012     11015     11012     11015     11016
     11012     11015     11017     11012     11015     11018     11016     11015     11017
     11016     11015     11018     11017     11015     11018     11015     11018     11019
     11015     11018     11020     11015     11018     11021     11019     11018     11020
     11019     11018     11021     11020     11018     11021     11018     11021     11022
     11018     11021     11023     11018     11021     11024     11022     11021     11023
     11022     11021     11024     11023     11021     11024     11021     11024     11025
     11021     11024     11026     11021     11024     11027     11025     11024     11026
     11025     11024     11027     11026     11024     11027     11024     11027     11028
     11024     11027     11029     11024     11027     11030     11028     11027     11029
     11028     11027     11030     11029     11027     11030     11027     11030     11031
     11027     11030     11032     11031     11030     11032     11030     11032     11033
     11030     11032     11034     11033     11032     11034     11032     11034     11035
     11032     11034     11036     11032     11034     11037     11035     11034     11036
     11035     11034     11037     11036     11034     11037     11034     11037     11038
     11034     11037     11039     11034     11037     11040     11038     11037     11039
     11038     11037     11040     11039     11037     11040     11037     11040     11041
     11037     11040     11042     11037     11040     11043     11041     11040     11042
     11041     11040     11043     11042     11040     11043     11040     11043     11044
     11040     11043     11045     11040     11043     11046     11044     11043     11045
     11044     11043     11046     11045     11043     11046     11043     11046     11047
     11043     11046     11048     11043     11046     11049     11047     11046     11048
     11047     11046     11049     11048     11046     11049     11046     11049     11050
     11046     11049     11051     11046     11049     11052     11050     11049     11051
     11050     11049     11052     11051     11049     11052     11049     11052     11053
     11049     11052     11054     11049     11052     11055     11053     11052     11054
     11053     11052     11055     11054     11052     11055     11052     11055     11056
     11052     11055     11057     11052     11055     11058     11056     11055     11057
     11056     11055     11058     11057     11055     11058     11009     11059     11060
     11009     11059     11061     11009     11059     11062     11060     11059     11061
     11060     11059     11062     11061     11059     11062     11059     11062     11063
     11059     11062     11064     11059     11062     11065     11063     11062     11064
     11063     11062     11065     11064     11062     11065     11062     11065     11066
     11062     11065     11067     11062     11065     11068     11066     11065     11067
     11066     11065     11068     11067     11065     11068     11065     11068     11069
     11065     11068     11070     11065     11068     11071     11069     11068     11070
     11069     11068     11071     11070     11068     11071     11068     11071     11072
     11068     11071     11073     11068     11071     11074     11072     11071     11073
     11072     11071     11074     11073     11071     11074     11071     11074     11075
     11071     11074     11076     11071     11074     11077     11075     11074     11076
     11075     11074     11077     11076     11074     11077     11074     11077     11078
     11074     11077     11079     11074     11077     11080     11078     11077     11079
     11078     11077     11080     11079     11077     11080     11077     11080     11081
     11077     11080     11082     11077     11080     11083     11081     11080     11082
     11081     11080     11083     11082     11080     11083     11080     11083     11084
     11080     11083     11085     11080     11083     11086     11084     11083     11085
     11084     11083     11086     11085     11083     11086     11083     11086     11087
     11083     11086     11088     11083     11086     11089     11087     11086     11088
     11087     11086     11089     11088     11086     11089     11086     11089     11090
     11086     11089     11091     11086     11089     11092     11090     11089     11091
     11090     11089     11092     11091     11089     11092     11089     11092     11093
     11089     11092     11094     11089     11092     11095     11093     11092     11094
     11093     11092     11095     11094     11092     11095     11092     11095     11096
     11092     11095     11097     11092     11095     11098     11096     11095     11097
     11096     11095     11098     11097     11095     11098     11095     11098     11099
     11095     11098     11100     11095     11098     11101     11099     11098     11100
     11099     11098     11101     11100     11098     11101     11103     11102     11106
     11103     11102     11110     11103     11102     11114     11106     11102     11110
     11106     11102     11114     11110     11102     11114     11102     11103     11104
     11102     11103     11105     11102     11103     11118     11104     11103     11105
     11104     11103     11118     11105     11103     11118     11102     11106     11107
     11102     11106     11108     11102     11106     11109     11107     11106     11108
     11107     11106     11109     11108     11106     11109     11102     11110     11111
     11102     11110     11112     11102     11110     11113     11111     11110     11112
     11111     11110     11113     11112     11110     11113     11102     11114     11115
     11102     11114     11116     11102     11114     11117     11115     11114     11116
     11115     11114     11117     11116     11114     11117     11103     11118     11119
     11103     11118     11120     11103     11118     11124     11119     11118     11120
     11119     11118     11124     11120     11118     11124     11122     11121     11123
     11122     11121     11124     11122     11121     11125     11123     11121     11124
     11123     11121     11125     11124     11121     11125     11118     11124     11121
     11121     11125     11126     11125     11126     11127     11125     11126     11128
     11125     11126     11129     11127     11126     11128     11127     11126     11129
     11128     11126     11129     11126     11129     11130     11126     11129     11131
     11126     11129     11137     11130     11129     11131     11130     11129     11137
     11131     11129     11137     11129     11131     11132     11131     11132     11133
     11131     11132     11134     11133     11132     11134     11132     11134     11135
     11132     11134     11136     11132     11134     11146     11135     11134     11136
     11135     11134     11146     11136     11134     11146     11129     11137     11138
     11129     11137     11139     11129     11137     11140     11138     11137     11139
     11138     11137     11140     11139     11137     11140     11137     11140     11141
     11140     11141     11142     11140     11141     11143     11142     11141     11143
     11141     11143     11144     11141     11143     11145     11141     11143     11193
     11144     11143     11145     11144     11143     11193     11145     11143     11193
     11134     11146     11147     11134     11146     11148     11134     11146     11149
     11147     11146     11148     11147     11146     11149     11148     11146     11149
     11146     11149     11150     11146     11149     11151     11146     11149     11152
     11150     11149     11151     11150     11149     11152     11151     11149     11152
     11149     11152     11153     11149     11152     11154     11149     11152     11155
     11153     11152     11154     11153     11152     11155     11154     11152     11155
     11152     11155     11156     11152     11155     11157     11152     11155     11158
     11156     11155     11157     11156     11155     11158     11157     11155     11158
     11155     11158     11159     11155     11158     11160     11155     11158     11161
     11159     11158     11160     11159     11158     11161     11160     11158     11161
     11158     11161     11162     11158     11161     11163     11158     11161     11164
     11162     11161     11163     11162     11161     11164     11163     11161     11164
     11161     11164     11165     11161     11164     11166     11165     11164     11166
     11164     11166     11167     11164     11166     11168     11167     11166     11168
     11166     11168     11169     11166     11168     11170     11166     11168     11171
     11169     11168     11170     11169     11168     11171     11170     11168     11171
     11168     11171     11172     11168     11171     11173     11168     11171     11174
     11172     11171     11173     11172     11171     11174     11173     11171     11174
     11171     11174     11175     11171     11174     11176     11171     11174     11177
     11175     11174     11176     11175     11174     11177     11176     11174     11177
     11174     11177     11178     11174     11177     11179     11174     11177     11180
     11178     11177     11179     11178     11177     11180     11179     11177     11180
     11177     11180     11181     11177     11180     11182     11177     11180     11183
     11181     11180     11182     11181     11180     11183     11182     11180     11183
     11180     11183     11184     11180     11183     11185     11180     11183     11186
     11184     11183     11185     11184     11183     11186     11185     11183     11186
     11183     11186     11187     11183     11186     11188     11183     11186     11189
     11187     11186     11188     11187     11186     11189     11188     11186     11189
     11186     11189     11190     11186     11189     11191     11186     11189     11192
     11190     11189     11191     11190     11189     11192     11191     11189     11192
     11143     11193     11194     11143     11193     11195     11143     11193     11196
     11194     11193     11195     11194     11193     11196     11195     11193     11196
     11193     11196     11197     11193     11196     11198     11193     11196     11199
     11197     11196     11198     11197     11196     11199     11198     11196     11199
     11196     11199     11200     11196     11199     11201     11196     11199     11202
     11200     11199     11201     11200     11199     11202     11201     11199     11202
     11199     11202     11203     11199     11202     11204     11199     11202     11205
     11203     11202     11204     11203     11202     11205     11204     11202     11205
     11202     11205     11206     11202     11205     11207     11202     11205     11208
     11206     11205     11207     11206     11205     11208     11207     11205     11208
     11205     11208     11209     11205     11208     11210     11205     11208     11211
     11209     11208     11210     11209     11208     11211     11210     11208     11211
     11208     11211     11212     11208     11211     11213     11208     11211     11214
     11212     11211     11213     11212     11211     11214     11213     11211     11214
     11211     11214     11215     11211     11214     11216     11211     11214     11217
     11215     11214     11216     11215     11214     11217     11216     11214     11217
     11214     11217     11218     11214     11217     11219     11214     11217     11220
     11218     11217     11219     11218     11217     11220     11219     11217     11220
     11217     11220     11221     11217     11220     11222     11217     11220     11223
     11221     11220     11222     11221     11220     11223     11222     11220     11223
     11220     11223     11224     11220     11223     11225     11220     11223     11226
     11224     11223     11225     11224     11223     11226     11225     11223     11226
     11223     11226     11227     11223     11226     11228     11223     11226     11229
     11227     11226     11228     11227     11226     11229     11228     11226     11229
     11226     11229     11230     11226     11229     11231     11226     11229     11232
     11230     11229     11231     11230     11229     11232     11231     11229     11232
     11229     11232     11233     11229     11232     11234     11229     11232     11235
     11233     11232     11234     11233     11232     11235     11234     11232     11235
     11237     11236     11240     11237     11236     11244     11237     11236     11248
     11240     11236     11244     11240     11236     11248     11244     11236     11248
     11236     11237     11238     11236     11237     11239     11236     11237     11252
     11238     11237     11239     11238     11237     11252     11239     11237     11252
     11236     11240     11241     11236     11240     11242     11236     11240     11243
     11241     11240     11242     11241     11240     11243     11242     11240     11243
     11236     11244     11245     11236     11244     11246     11236     11244     11247
     11245     11244     11246     11245     11244     11247     11246     11244     11247
     11236     11248     11249     11236     11248     11250     11236     11248     11251
     11249     11248     11250     11249     11248     11251     11250     11248     11251
     11237     11252     11253     11237     11252     11254     11237     11252     11258
     11253     11252     11254     11253     11252     11258     11254     11252     11258
     11256     11255     11257     11256     11255     11258     11256     11255     11259
     11257     11255     11258     11257     11255     11259     11258     11255     11259
     11252     11258     11255     11255     11259     11260     11259     11260     11261
     11259     11260     11262     11259     11260     11263     11261     11260     11262
     11261     11260     11263     11262     11260     11263     11260     11263     11264
     11260     11263     11265     11260     11263     11271     11264     11263     11265
     11264     11263     11271     11265     11263     11271     11263     11265     11266
     11265     11266     11267     11265     11266     11268     11267     11266     11268
     11266     11268     11269     11266     11268     11270     11266     11268     11280
     11269     11268     11270     11269     11268     11280     11270     11268     11280
     11263     11271     11272     11263     11271     11273     11263     11271     11274
     11272     11271     11273     11272     11271     11274     11273     11271     11274
     11271     11274     11275     11274     11275     11276     11274     11275     11277
     11276     11275     11277     11275     11277     11278     11275     11277     11279
     11275     11277     11327     11278     11277     11279     11278     11277     11327
     11279     11277     11327     11268     11280     11281     11268     11280     11282
     11268     11280     11283     11281     11280     11282     11281     11280     11283
     11282     11280     11283     11280     11283     11284     11280     11283     11285
     11280     11283     11286     11284     11283     11285     11284     11283     11286
     11285     11283     11286     11283     11286     11287     11283     11286     11288
     11283     11286     11289     11287     11286     11288     11287     11286     11289
     11288     11286     11289     11286     11289     11290     11286     11289     11291
     11286     11289     11292     11290     11289     11291     11290     11289     11292
     11291     11289     11292     11289     11292     11293     11289     11292     11294
     11289     11292     11295     11293     11292     11294     11293     11292     11295
     11294     11292     11295     11292     11295     11296     11292     11295     11297
     11292     11295     11298     11296     11295     11297     11296     11295     11298
     11297     11295     11298     11295     11298     11299     11295     11298     11300
     11299     11298     11300     11298     11300     11301     11298     11300     11302
     11301     11300     11302     11300     11302     11303     11300     11302     11304
     11300     11302     11305     11303     11302     11304     11303     11302     11305
     11304     11302     11305     11302     11305     11306     11302     11305     11307
     11302     11305     11308     11306     11305     11307     11306     11305     11308
     11307     11305     11308     11305     11308     11309     11305     11308     11310
     11305     11308     11311     11309     11308     11310     11309     11308     11311
     11310     11308     11311     11308     11311     11312     11308     11311     11313
     11308     11311     11314     11312     11311     11313     11312     11311     11314
     11313     11311     11314     11311     11314     11315     11311     11314     11316
     11311     11314     11317     11315     11314     11316     11315     11314     11317
     11316     11314     11317     11314     11317     11318     11314     11317     11319
     11314     11317     11320     11318     11317     11319     11318     11317     11320
     11319     11317     11320     11317     11320     11321     11317     11320     11322
     11317     11320     11323     11321     11320     11322     11321     11320     11323
     11322     11320     11323     11320     11323     11324     11320     11323     11325
     11320     11323     11326     11324     11323     11325     11324     11323     11326
     11325     11323     11326     11277     11327     11328     11277     11327     11329
     11277     11327     11330     11328     11327     11329     11328     11327     11330
     11329     11327     11330     11327     11330     11331     11327     11330     11332
     11327     11330     11333     11331     11330     11332     11331     11330     11333
     11332     11330     11333     11330     11333     11334     11330     11333     11335
     11330     11333     11336     11334     11333     11335     11334     11333     11336
     11335     11333     11336     11333     11336     11337     11333     11336     11338
     11333     11336     11339     11337     11336     11338     11337     11336     11339
     11338     11336     11339     11336     11339     11340     11336     11339     11341
     11336     11339     11342     11340     11339     11341     11340     11339     11342
     11341     11339     11342     11339     11342     11343     11339     11342     11344
     11339     11342     11345     11343     11342     11344     11343     11342     11345
     11344     11342     11345     11342     11345     11346     11342     11345     11347
     11342     11345     11348     11346     11345     11347     11346     11345     11348
     11347     11345     11348     11345     11348     11349     11345     11348     11350
     11345     11348     11351     11349     11348     11350     11349     11348     11351
     11350     11348     11351     11348     11351     11352     11348     11351     11353
     11348     11351     11354     11352     11351     11353     11352     11351     11354
     11353     11351     11354     11351     11354     11355     11351     11354     11356
     11351     11354     11357     11355     11354     11356     11355     11354     11357
     11356     11354     11357     11354     11357     11358     11354     11357     11359
     11354     11357     11360     11358     11357     11359     11358     11357     11360
     11359     11357     11360     11357     11360     11361     11357     11360     11362
     11357     11360     11363     11361     11360     11362     11361     11360     11363
     11362     11360     11363     11360     11363     11364     11360     11363     11365
     11360     11363     11366     11364     11363     11365     11364     11363     11366
     11365     11363     11366     11363     11366     11367     11363     11366     11368
     11363     11366     11369     11367     11366     11368     11367     11366     11369
     11368     11366     11369     11371     11370     11372     11371     11370     11373
     11371     11370     11374     11372     11370     11373     11372     11370     11374
     11373     11370     11374     11370     11374     11375     11370     11374     11376
     11370     11374     11379     11375     11374     11376     11375     11374     11379
     11376     11374     11379     11374     11376     11377     11374     11376     11378
     11377     11376     11378     11374     11379     11380     11374     11379     11381
     11374     11379     11385     11380     11379     11381     11380     11379     11385
     11381     11379     11385     11383     11382     11384     11383     11382     11385
     11383     11382     11386     11384     11382     11385     11384     11382     11386
     11385     11382     11386     11379     11385     11382     11382     11386     11387
     11386     11387     11388     11386     11387     11389     11386     11387     11390
     11388     11387     11389     11388     11387     11390     11389     11387     11390
     11387     11390     11391     11387     11390     11392     11387     11390     11398
     11391     11390     11392     11391     11390     11398     11392     11390     11398
     11390     11392     11393     11392     11393     11394     11392     11393     11395
     11394     11393     11395     11393     11395     11396     11393     11395     11397
     11393     11395     11407     11396     11395     11397     11396     11395     11407
     11397     11395     11407     11390     11398     11399     11390     11398     11400
     11390     11398     11401     11399     11398     11400     11399     11398     11401
     11400     11398     11401     11398     11401     11402     11401     11402     11403
     11401     11402     11404     11403     11402     11404     11402     11404     11405
     11402     11404     11406     11402     11404     11454     11405     11404     11406
     11405     11404     11454     11406     11404     11454     11395     11407     11408
     11395     11407     11409     11395     11407     11410     11408     11407     11409
     11408     11407     11410     11409     11407     11410     11407     11410     11411
     11407     11410     11412     11407     11410     11413     11411     11410     11412
     11411     11410     11413     11412     11410     11413     11410     11413     11414
     11410     11413     11415     11410     11413     11416     11414     11413     11415
     11414     11413     11416     11415     11413     11416     11413     11416     11417
     11413     11416     11418     11413     11416     11419     11417     11416     11418
     11417     11416     11419     11418     11416     11419     11416     11419     11420
     11416     11419     11421     11416     11419     11422     11420     11419     11421
     11420     11419     11422     11421     11419     11422     11419     11422     11423
     11419     11422     11424     11419     11422     11425     11423     11422     11424
     11423     11422     11425     11424     11422     11425     11422     11425     11426
     11422     11425     11427     11426     11425     11427     11425     11427     11428
     11425     11427     11429     11428     11427     11429     11427     11429     11430
     11427     11429     11431     11427     11429     11432     11430     11429     11431
     11430     11429     11432     11431     11429     11432     11429     11432     11433
     11429     11432     11434     11429     11432     11435     11433     11432     11434
     11433     11432     11435     11434     11432     11435     11432     11435     11436
     11432     11435     11437     11432     11435     11438     11436     11435     11437
     11436     11435     11438     11437     11435     11438     11435     11438     11439
     11435     11438     11440     11435     11438     11441     11439     11438     11440
     11439     11438     11441     11440     11438     11441     11438     11441     11442
     11438     11441     11443     11438     11441     11444     11442     11441     11443
     11442     11441     11444     11443     11441     11444     11441     11444     11445
     11441     11444     11446     11441     11444     11447     11445     11444     11446
     11445     11444     11447     11446     11444     11447     11444     11447     11448
     11444     11447     11449     11444     11447     11450     11448     11447     11449
     11448     11447     11450     11449     11447     11450     11447     11450     11451
     11447     11450     11452     11447     11450     11453     11451     11450     11452
     11451     11450     11453     11452     11450     11453     11404     11454     11455
     11404     11454     11456     11404     11454     11457     11455     11454     11456
     11455     11454     11457     11456     11454     11457     11454     11457     11458
     11454     11457     11459     11454     11457     11460     11458     11457     11459
     11458     11457     11460     11459     11457     11460     11457     11460     11461
     11457     11460     11462     11457     11460     11463     11461     11460     11462
     11461     11460     11463     11462     11460     11463     11460     11463     11464
     11460     11463     11465     11460     11463     11466     11464     11463     11465
     11464     11463     11466     11465     11463     11466     11463     11466     11467
     11463     11466     11468     11463     11466     11469     11467     11466     11468
     11467     11466     11469     11468     11466     11469     11466     11469     11470
     11466     11469     11471     11466     11469     11472     11470     11469     11471
     11470     11469     11472     11471     11469     11472     11469     11472     11473
     11469     11472     11474     11469     11472     11475     11473     11472     11474
     11473     11472     11475     11474     11472     11475     11472     11475     11476
     11472     11475     11477     11472     11475     11478     11476     11475     11477
     11476     11475     11478     11477     11475     11478     11475     11478     11479
     11475     11478     11480     11475     11478     11481     11479     11478     11480
     11479     11478     11481     11480     11478     11481     11478     11481     11482
     11478     11481     11483     11478     11481     11484     11482     11481     11483
     11482     11481     11484     11483     11481     11484     11481     11484     11485
     11481     11484     11486     11481     11484     11487     11485     11484     11486
     11485     11484     11487     11486     11484     11487     11484     11487     11488
     11484     11487     11489     11484     11487     11490     11488     11487     11489
     11488     11487     11490     11489     11487     11490     11487     11490     11491
     11487     11490     11492     11487     11490     11493     11491     11490     11492
     11491     11490     11493     11492     11490     11493     11490     11493     11494
     11490     11493     11495     11490     11493     11496     11494     11493     11495
     11494     11493     11496     11495     11493     11496     11498     11497     11501
     11498     11497     11505     11498     11497     11509     11501     11497     11505
     11501     11497     11509     11505     11497     11509     11497     11498     11499
     11497     11498     11500     11497     11498     11513     11499     11498     11500
     11499     11498     11513     11500     11498     11513     11497     11501     11502
     11497     11501     11503     11497     11501     11504     11502     11501     11503
     11502     11501     11504     11503     11501     11504     11497     11505     11506
     11497     11505     11507     11497     11505     11508     11506     11505     11507
     11506     11505     11508     11507     11505     11508     11497     11509     11510
     11497     11509     11511     11497     11509     11512     11510     11509     11511
     11510     11509     11512     11511     11509     11512     11498     11513     11514
     11498     11513     11515     11498     11513     11519     11514     11513     11515
     11514     11513     11519     11515     11513     11519     11517     11516     11518
     11517     11516     11519     11517     11516     11520     11518     11516     11519
     11518     11516     11520     11519     11516     11520     11513     11519     11516
     11516     11520     11521     11520     11521     11522     11520     11521     11523
     11520     11521     11524     11522     11521     11523     11522     11521     11524
     11523     11521     11524     11521     11524     11525     11521     11524     11526
     11521     11524     11532     11525     11524     11526     11525     11524     11532
     11526     11524     11532     11524     11526     11527     11526     11527     11528
     11526     11527     11529     11528     11527     11529     11527     11529     11530
     11527     11529     11531     11527     11529     11541     11530     11529     11531
     11530     11529     11541     11531     11529     11541     11524     11532     11533
     11524     11532     11534     11524     11532     11535     11533     11532     11534
     11533     11532     11535     11534     11532     11535     11532     11535     11536
     11535     11536     11537     11535     11536     11538     11537     11536     11538
     11536     11538     11539     11536     11538     11540     11536     11538     11588
     11539     11538     11540     11539     11538     11588     11540     11538     11588
     11529     11541     11542     11529     11541     11543     11529     11541     11544
     11542     11541     11543     11542     11541     11544     11543     11541     11544
     11541     11544     11545     11541     11544     11546     11541     11544     11547
     11545     11544     11546     11545     11544     11547     11546     11544     11547
     11544     11547     11548     11544     11547     11549     11544     11547     11550
     11548     11547     11549     11548     11547     11550     11549     11547     11550
     11547     11550     11551     11547     11550     11552     11547     11550     11553
     11551     11550     11552     11551     11550     11553     11552     11550     11553
     11550     11553     11554     11550     11553     11555     11550     11553     11556
     11554     11553     11555     11554     11553     11556     11555     11553     11556
     11553     11556     11557     11553     11556     11558     11553     11556     11559
     11557     11556     11558     11557     11556     11559     11558     11556     11559
     11556     11559     11560     11556     11559     11561     11560     11559     11561
     11559     11561     11562     11559     11561     11563     11562     11561     11563
     11561     11563     11564     11561     11563     11565     11561     11563     11566
     11564     11563     11565     11564     11563     11566     11565     11563     11566
     11563     11566     11567     11563     11566     11568     11563     11566     11569
     11567     11566     11568     11567     11566     11569     11568     11566     11569
     11566     11569     11570     11566     11569     11571     11566     11569     11572
     11570     11569     11571     11570     11569     11572     11571     11569     11572
     11569     11572     11573     11569     11572     11574     11569     11572     11575
     11573     11572     11574     11573     11572     11575     11574     11572     11575
     11572     11575     11576     11572     11575     11577     11572     11575     11578
     11576     11575     11577     11576     11575     11578     11577     11575     11578
     11575     11578     11579     11575     11578     11580     11575     11578     11581
     11579     11578     11580     11579     11578     11581     11580     11578     11581
     11578     11581     11582     11578     11581     11583     11578     11581     11584
     11582     11581     11583     11582     11581     11584     11583     11581     11584
     11581     11584     11585     11581     11584     11586     11581     11584     11587
     11585     11584     11586     11585     11584     11587     11586     11584     11587
     11538     11588     11589     11538     11588     11590     11538     11588     11591
     11589     11588     11590     11589     11588     11591     11590     11588     11591
     11588     11591     11592     11588     11591     11593     11588     11591     11594
     11592     11591     11593     11592     11591     11594     11593     11591     11594
     11591     11594     11595     11591     11594     11596     11591     11594     11597
     11595     11594     11596     11595     11594     11597     11596     11594     11597
     11594     11597     11598     11594     11597     11599     11594     11597     11600
     11598     11597     11599     11598     11597     11600     11599     11597     11600
     11597     11600     11601     11597     11600     11602     11597     11600     11603
     11601     11600     11602     11601     11600     11603     11602     11600     11603
     11600     11603     11604     11600     11603     11605     11600     11603     11606
     11604     11603     11605     11604     11603     11606     11605     11603     11606
     11603     11606     11607     11603     11606     11608     11603     11606     11609
     11607     11606     11608     11607     11606     11609     11608     11606     11609
     11606     11609     11610     11606     11609     11611     11606     11609     11612
     11610     11609     11611     11610     11609     11612     11611     11609     11612
     11609     11612     11613     11609     11612     11614     11609     11612     11615
     11613     11612     11614     11613     11612     11615     11614     11612     11615
     11612     11615     11616     11612     11615     11617     11612     11615     11618
     11616     11615     11617     11616     11615     11618     11617     11615     11618
     11615     11618     11619     11615     11618     11620     11615     11618     11621
     11619     11618     11620     11619     11618     11621     11620     11618     11621
     11618     11621     11622     11618     11621     11623     11618     11621     11624
     11622     11621     11623     11622     11621     11624     11623     11621     11624
     11621     11624     11625     11621     11624     11626     11621     11624     11627
     11625     11624     11626     11625     11624     11627     11626     11624     11627
     11624     11627     11628     11624     11627     11629     11624     11627     11630
     11628     11627     11629     11628     11627     11630     11629     11627     11630
     11632     11631     11635     11632     11631     11639     11632     11631     11643
     11635     11631     11639     11635     11631     11643     11639     11631     11643
     11631     11632     11633     11631     11632     11634     11631     11632     11647
     11633     11632     11634     11633     11632     11647     11634     11632     11647
     11631     11635     11636     11631     11635     11637     11631     11635     11638
     11636     11635     11637     11636     11635     11638     11637     11635     11638
     11631     11639     11640     11631     11639     11641     11631     11639     11642
     11640     11639     11641     11640     11639     11642     11641     11639     11642
     11631     11643     11644     11631     11643     11645     11631     11643     11646
     11644     11643     11645     11644     11643     11646     11645     11643     11646
     11632     11647     11648     11632     11647     11649     11632     11647     11653
     11648     11647     11649     11648     11647     11653     11649     11647     11653
     11651     11650     11652     11651     11650     11653     11651     11650     11654
     11652     11650     11653     11652     11650     11654     11653     11650     11654
     11647     11653     11650     11650     11654     11655     11654     11655     11656
     11654     11655     11657     11654     11655     11658     11656     11655     11657
     11656     11655     11658     11657     11655     11658     11655     11658     11659
     11655     11658     11660     11655     11658     11666     11659     11658     11660
     11659     11658     11666     11660     11658     11666     11658     11660     11661
     11660     11661     11662     11660     11661     11663     11662     11661     11663
     11661     11663     11664     11661     11663     11665     11661     11663     11675
     11664     11663     11665     11664     11663     11675     11665     11663     11675
     11658     11666     11667     11658     11666     11668     11658     11666     11669
     11667     11666     11668     11667     11666     11669     11668     11666     11669
     11666     11669     11670     11669     11670     11671     11669     11670     11672
     11671     11670     11672     11670     11672     11673     11670     11672     11674
     11670     11672     11722     11673     11672     11674     11673     11672     11722
     11674     11672     11722     11663     11675     11676     11663     11675     11677
     11663     11675     11678     11676     11675     11677     11676     11675     11678
     11677     11675     11678     11675     11678     11679     11675     11678     11680
     11675     11678     11681     11679     11678     11680     11679     11678     11681
     11680     11678     11681     11678     11681     11682     11678     11681     11683
     11678     11681     11684     11682     11681     11683     11682     11681     11684
     11683     11681     11684     11681     11684     11685     11681     11684     11686
     11681     11684     11687     11685     11684     11686     11685     11684     11687
     11686     11684     11687     11684     11687     11688     11684     11687     11689
     11684     11687     11690     11688     11687     11689     11688     11687     11690
     11689     11687     11690     11687     11690     11691     11687     11690     11692
     11687     11690     11693     11691     11690     11692     11691     11690     11693
     11692     11690     11693     11690     11693     11694     11690     11693     11695
     11694     11693     11695     11693     11695     11696     11693     11695     11697
     11696     11695     11697     11695     11697     11698     11695     11697     11699
     11695     11697     11700     11698     11697     11699     11698     11697     11700
     11699     11697     11700     11697     11700     11701     11697     11700     11702
     11697     11700     11703     11701     11700     11702     11701     11700     11703
     11702     11700     11703     11700     11703     11704     11700     11703     11705
     11700     11703     11706     11704     11703     11705     11704     11703     11706
     11705     11703     11706     11703     11706     11707     11703     11706     11708
     11703     11706     11709     11707     11706     11708     11707     11706     11709
     11708     11706     11709     11706     11709     11710     11706     11709     11711
     11706     11709     11712     11710     11709     11711     11710     11709     11712
     11711     11709     11712     11709     11712     11713     11709     11712     11714
     11709     11712     11715     11713     11712     11714     11713     11712     11715
     11714     11712     11715     11712     11715     11716     11712     11715     11717
     11712     11715     11718     11716     11715     11717     11716     11715     11718
     11717     11715     11718     11715     11718     11719     11715     11718     11720
     11715     11718     11721     11719     11718     11720     11719     11718     11721
     11720     11718     11721     11672     11722     11723     11672     11722     11724
     11672     11722     11725     11723     11722     11724     11723     11722     11725
     11724     11722     11725     11722     11725     11726     11722     11725     11727
     11722     11725     11728     11726     11725     11727     11726     11725     11728
     11727     11725     11728     11725     11728     11729     11725     11728     11730
     11725     11728     11731     11729     11728     11730     11729     11728     11731
     11730     11728     11731     11728     11731     11732     11728     11731     11733
     11728     11731     11734     11732     11731     11733     11732     11731     11734
     11733     11731     11734     11731     11734     11735     11731     11734     11736
     11731     11734     11737     11735     11734     11736     11735     11734     11737
     11736     11734     11737     11734     11737     11738     11734     11737     11739
     11734     11737     11740     11738     11737     11739     11738     11737     11740
     11739     11737     11740     11737     11740     11741     11737     11740     11742
     11737     11740     11743     11741     11740     11742     11741     11740     11743
     11742     11740     11743     11740     11743     11744     11740     11743     11745
     11740     11743     11746     11744     11743     11745     11744     11743     11746
     11745     11743     11746     11743     11746     11747     11743     11746     11748
     11743     11746     11749     11747     11746     11748     11747     11746     11749
     11748     11746     11749     11746     11749     11750     11746     11749     11751
     11746     11749     11752     11750     11749     11751     11750     11749     11752
     11751     11749     11752     11749     11752     11753     11749     11752     11754
     11749     11752     11755     11753     11752     11754     11753     11752     11755
     11754     11752     11755     11752     11755     11756     11752     11755     11757
     11752     11755     11758     11756     11755     11757     11756     11755     11758
     11757     11755     11758     11755     11758     11759     11755     11758     11760
     11755     11758     11761     11759     11758     11760     11759     11758     11761
     11760     11758     11761     11758     11761     11762     11758     11761     11763
     11758     11761     11764     11762     11761     11763     11762     11761     11764
     11763     11761     11764     11766     11765     11769     11766     11765     11773
     11766     11765     11777     11769     11765     11773     11769     11765     11777
     11773     11765     11777     11765     11766     11767     11765     11766     11768
     11765     11766     11781     11767     11766     11768     11767     11766     11781
     11768     11766     11781     11765     11769     11770     11765     11769     11771
     11765     11769     11772     11770     11769     11771     11770     11769     11772
     11771     11769     11772     11765     11773     11774     11765     11773     11775
     11765     11773     11776     11774     11773     11775     11774     11773     11776
     11775     11773     11776     11765     11777     11778     11765     11777     11779
     11765     11777     11780     11778     11777     11779     11778     11777     11780
     11779     11777     11780     11766     11781     11782     11766     11781     11783
     11766     11781     11787     11782     11781     11783     11782     11781     11787
     11783     11781     11787     11785     11784     11786     11785     11784     11787
     11785     11784     11788     11786     11784     11787     11786     11784     11788
     11787     11784     11788     11781     11787     11784     11784     11788     11789
     11788     11789     11790     11788     11789     11791     11788     11789     11792
     11790     11789     11791     11790     11789     11792     11791     11789     11792
     11789     11792     11793     11789     11792     11794     11789     11792     11800
     11793     11792     11794     11793     11792     11800     11794     11792     11800
     11792     11794     11795     11794     11795     11796     11794     11795     11797
     11796     11795     11797     11795     11797     11798     11795     11797     11799
     11795     11797     11809     11798     11797     11799     11798     11797     11809
     11799     11797     11809     11792     11800     11801     11792     11800     11802
     11792     11800     11803     11801     11800     11802     11801     11800     11803
     11802     11800     11803     11800     11803     11804     11803     11804     11805
     11803     11804     11806     11805     11804     11806     11804     11806     11807
     11804     11806     11808     11804     11806     11856     11807     11806     11808
     11807     11806     11856     11808     11806     11856     11797     11809     11810
     11797     11809     11811     11797     11809     11812     11810     11809     11811
     11810     11809     11812     11811     11809     11812     11809     11812     11813
     11809     11812     11814     11809     11812     11815     11813     11812     11814
     11813     11812     11815     11814     11812     11815     11812     11815     11816
     11812     11815     11817     11812     11815     11818     11816     11815     11817
     11816     11815     11818     11817     11815     11818     11815     11818     11819
     11815     11818     11820     11815     11818     11821     11819     11818     11820
     11819     11818     11821     11820     11818     11821     11818     11821     11822
     11818     11821     11823     11818     11821     11824     11822     11821     11823
     11822     11821     11824     11823     11821     11824     11821     11824     11825
     11821     11824     11826     11821     11824     11827     11825     11824     11826
     11825     11824     11827     11826     11824     11827     11824     11827     11828
     11824     11827     11829     11828     11827     11829     11827     11829     11830
     11827     11829     11831     11830     11829     11831     11829     11831     11832
     11829     11831     11833     11829     11831     11834     11832     11831     11833
     11832     11831     11834     11833     11831     11834     11831     11834     11835
     11831     11834     11836     11831     11834     11837     11835     11834     11836
     11835     11834     11837     11836     11834     11837     11834     11837     11838
     11834     11837     11839     11834     11837     11840     11838     11837     11839
     11838     11837     11840     11839     11837     11840     11837     11840     11841
     11837     11840     11842     11837     11840     11843     11841     11840     11842
     11841     11840     11843     11842     11840     11843     11840     11843     11844
     11840     11843     11845     11840     11843     11846     11844     11843     11845
     11844     11843     11846     11845     11843     11846     11843     11846     11847
     11843     11846     11848     11843     11846     11849     11847     11846     11848
     11847     11846     11849     11848     11846     11849     11846     11849     11850
     11846     11849     11851     11846     11849     11852     11850     11849     11851
     11850     11849     11852     11851     11849     11852     11849     11852     11853
     11849     11852     11854     11849     11852     11855     11853     11852     11854
     11853     11852     11855     11854     11852     11855     11806     11856     11857
     11806     11856     11858     11806     11856     11859     11857     11856     11858
     11857     11856     11859     11858     11856     11859     11856     11859     11860
     11856     11859     11861     11856     11859     11862     11860     11859     11861
     11860     11859     11862     11861     11859     11862     11859     11862     11863
     11859     11862     11864     11859     11862     11865     11863     11862     11864
     11863     11862     11865     11864     11862     11865     11862     11865     11866
     11862     11865     11867     11862     11865     11868     11866     11865     11867
     11866     11865     11868     11867     11865     11868     11865     11868     11869
     11865     11868     11870     11865     11868     11871     11869     11868     11870
     11869     11868     11871     11870     11868     11871     11868     11871     11872
     11868     11871     11873     11868     11871     11874     11872     11871     11873
     11872     11871     11874     11873     11871     11874     11871     11874     11875
     11871     11874     11876     11871     11874     11877     11875     11874     11876
     11875     11874     11877     11876     11874     11877     11874     11877     11878
     11874     11877     11879     11874     11877     11880     11878     11877     11879
     11878     11877     11880     11879     11877     11880     11877     11880     11881
     11877     11880     11882     11877     11880     11883     11881     11880     11882
     11881     11880     11883     11882     11880     11883     11880     11883     11884
     11880     11883     11885     11880     11883     11886     11884     11883     11885
     11884     11883     11886     11885     11883     11886     11883     11886     11887
     11883     11886     11888     11883     11886     11889     11887     11886     11888
     11887     11886     11889     11888     11886     11889     11886     11889     11890
     11886     11889     11891     11886     11889     11892     11890     11889     11891
     11890     11889     11892     11891     11889     11892     11889     11892     11893
     11889     11892     11894     11889     11892     11895     11893     11892     11894
     11893     11892     11895     11894     11892     11895     11892     11895     11896
     11892     11895     11897     11892     11895     11898     11896     11895     11897
     11896     11895     11898     11897     11895     11898     11900     11899     11903
     11900     11899     11907     11900     11899     11911     11903     11899     11907
     11903     11899     11911     11907     11899     11911     11899     11900     11901
     11899     11900     11902     11899     11900     11915     11901     11900     11902
     11901     11900     11915     11902     11900     11915     11899     11903     11904
     11899     11903     11905     11899     11903     11906     11904     11903     11905
     11904     11903     11906     11905     11903     11906     11899     11907     11908
     11899     11907     11909     11899     11907     11910     11908     11907     11909
     11908     11907     11910     11909     11907     11910     11899     11911     11912
     11899     11911     11913     11899     11911     11914     11912     11911     11913
     11912     11911     11914     11913     11911     11914     11900     11915     11916
     11900     11915     11917     11900     11915     11921     11916     11915     11917
     11916     11915     11921     11917     11915     11921     11919     11918     11920
     11919     11918     11921     11919     11918     11922     11920     11918     11921
     11920     11918     11922     11921     11918     11922     11915     11921     11918
     11918     11922     11923     11922     11923     11924     11922     11923     11925
     11922     11923     11926     11924     11923     11925     11924     11923     11926
     11925     11923     11926     11923     11926     11927     11923     11926     11928
     11923     11926     11934     11927     11926     11928     11927     11926     11934
     11928     11926     11934     11926     11928     11929     11928     11929     11930
     11928     11929     11931     11930     11929     11931     11929     11931     11932
     11929     11931     11933     11929     11931     11943     11932     11931     11933
     11932     11931     11943     11933     11931     11943     11926     11934     11935
     11926     11934     11936     11926     11934     11937     11935     11934     11936
     11935     11934     11937     11936     11934     11937     11934     11937     11938
     11937     11938     11939     11937     11938     11940     11939     11938     11940
     11938     11940     11941     11938     11940     11942     11938     11940     11990
     11941     11940     11942     11941     11940     11990     11942     11940     11990
     11931     11943     11944     11931     11943     11945     11931     11943     11946
     11944     11943     11945     11944     11943     11946     11945     11943     11946
     11943     11946     11947     11943     11946     11948     11943     11946     11949
     11947     11946     11948     11947     11946     11949     11948     11946     11949
     11946     11949     11950     11946     11949     11951     11946     11949     11952
     11950     11949     11951     11950     11949     11952     11951     11949     11952
     11949     11952     11953     11949     11952     11954     11949     11952     11955
     11953     11952     11954     11953     11952     11955     11954     11952     11955
     11952     11955     11956     11952     11955     11957     11952     11955     11958
     11956     11955     11957     11956     11955     11958     11957     11955     11958
     11955     11958     11959     11955     11958     11960     11955     11958     11961
     11959     11958     11960     11959     11958     11961     11960     11958     11961
     11958     11961     11962     11958     11961     11963     11962     11961     11963
     11961     11963     11964     11961     11963     11965     11964     11963     11965
     11963     11965     11966     11963     11965     11967     11963     11965     11968
     11966     11965     11967     11966     11965     11968     11967     11965     11968
     11965     11968     11969     11965     11968     11970     11965     11968     11971
     11969     11968     11970     11969     11968     11971     11970     11968     11971
     11968     11971     11972     11968     11971     11973     11968     11971     11974
     11972     11971     11973     11972     11971     11974     11973     11971     11974
     11971     11974     11975     11971     11974     11976     11971     11974     11977
     11975     11974     11976     11975     11974     11977     11976     11974     11977
     11974     11977     11978     11974     11977     11979     11974     11977     11980
     11978     11977     11979     11978     11977     11980     11979     11977     11980
     11977     11980     11981     11977     11980     11982     11977     11980     11983
     11981     11980     11982     11981     11980     11983     11982     11980     11983
     11980     11983     11984     11980     11983     11985     11980     11983     11986
     11984     11983     11985     11984     11983     11986     11985     11983     11986
     11983     11986     11987     11983     11986     11988     11983     11986     11989
     11987     11986     11988     11987     11986     11989     11988     11986     11989
     11940     11990     11991     11940     11990     11992     11940     11990     11993
     11991     11990     11992     11991     11990     11993     11992     11990     11993
     11990     11993     11994     11990     11993     11995     11990     11993     11996
     11994     11993     11995     11994     11993     11996     11995     11993     11996
     11993     11996     11997     11993     11996     11998     11993     11996     11999
     11997     11996     11998     11997     11996     11999     11998     11996     11999
     11996     11999     12000     11996     11999     12001     11996     11999     12002
     12000     11999     12001     12000     11999     12002     12001     11999     12002
     11999     12002     12003     11999     12002     12004     11999     12002     12005
     12003     12002     12004     12003     12002     12005     12004     12002     12005
     12002     12005     12006     12002     12005     12007     12002     12005     12008
     12006     12005     12007     12006     12005     12008     12007     12005     12008
     12005     12008     12009     12005     12008     12010     12005     12008     12011
     12009     12008     12010     12009     12008     12011     12010     12008     12011
     12008     12011     12012     12008     12011     12013     12008     12011     12014
     12012     12011     12013     12012     12011     12014     12013     12011     12014
     12011     12014     12015     12011     12014     12016     12011     12014     12017
     12015     12014     12016     12015     12014     12017     12016     12014     12017
     12014     12017     12018     12014     12017     12019     12014     12017     12020
     12018     12017     12019     12018     12017     12020     12019     12017     12020
     12017     12020     12021     12017     12020     12022     12017     12020     12023
     12021     12020     12022     12021     12020     12023     12022     12020     12023
     12020     12023     12024     12020     12023     12025     12020     12023     12026
     12024     12023     12025     12024     12023     12026     12025     12023     12026
     12023     12026     12027     12023     12026     12028     12023     12026     12029
     12027     12026     12028     12027     12026     12029     12028     12026     12029
     12026     12029     12030     12026     12029     12031     12026     12029     12032
     12030     12029     12031     12030     12029     12032     12031     12029     12032
     12034     12033     12037     12034     12033     12041     12034     12033     12045
     12037     12033     12041     12037     12033     12045     12041     12033     12045
     12033     12034     12035     12033     12034     12036     12033     12034     12049
     12035     12034     12036     12035     12034     12049     12036     12034     12049
     12033     12037     12038     12033     12037     12039     12033     12037     12040
     12038     12037     12039     12038     12037     12040     12039     12037     12040
     12033     12041     12042     12033     12041     12043     12033     12041     12044
     12042     12041     12043     12042     12041     12044     12043     12041     12044
     12033     12045     12046     12033     12045     12047     12033     12045     12048
     12046     12045     12047     12046     12045     12048     12047     12045     12048
     12034     12049     12050     12034     12049     12051     12034     12049     12055
     12050     12049     12051     12050     12049     12055     12051     12049     12055
     12053     12052     12054     12053     12052     12055     12053     12052     12056
     12054     12052     12055     12054     12052     12056     12055     12052     12056
     12049     12055     12052     12052     12056     12057     12056     12057     12058
     12056     12057     12059     12056     12057     12060     12058     12057     12059
     12058     12057     12060     12059     12057     12060     12057     12060     12061
     12057     12060     12062     12057     12060     12068     12061     12060     12062
     12061     12060     12068     12062     12060     12068     12060     12062     12063
     12062     12063     12064     12062     12063     12065     12064     12063     12065
     12063     12065     12066     12063     12065     12067     12063     12065     12077
     12066     12065     12067     12066     12065     12077     12067     12065     12077
     12060     12068     12069     12060     12068     12070     12060     12068     12071
     12069     12068     12070     12069     12068     12071     12070     12068     12071
     12068     12071     12072     12071     12072     12073     12071     12072     12074
     12073     12072     12074     12072     12074     12075     12072     12074     12076
     12072     12074     12124     12075     12074     12076     12075     12074     12124
     12076     12074     12124     12065     12077     12078     12065     12077     12079
     12065     12077     12080     12078     12077     12079     12078     12077     12080
     12079     12077     12080     12077     12080     12081     12077     12080     12082
     12077     12080     12083     12081     12080     12082     12081     12080     12083
     12082     12080     12083     12080     12083     12084     12080     12083     12085
     12080     12083     12086     12084     12083     12085     12084     12083     12086
     12085     12083     12086     12083     12086     12087     12083     12086     12088
     12083     12086     12089     12087     12086     12088     12087     12086     12089
     12088     12086     12089     12086     12089     12090     12086     12089     12091
     12086     12089     12092     12090     12089     12091     12090     12089     12092
     12091     12089     12092     12089     12092     12093     12089     12092     12094
     12089     12092     12095     12093     12092     12094     12093     12092     12095
     12094     12092     12095     12092     12095     12096     12092     12095     12097
     12096     12095     12097     12095     12097     12098     12095     12097     12099
     12098     12097     12099     12097     12099     12100     12097     12099     12101
     12097     12099     12102     12100     12099     12101     12100     12099     12102
     12101     12099     12102     12099     12102     12103     12099     12102     12104
     12099     12102     12105     12103     12102     12104     12103     12102     12105
     12104     12102     12105     12102     12105     12106     12102     12105     12107
     12102     12105     12108     12106     12105     12107     12106     12105     12108
     12107     12105     12108     12105     12108     12109     12105     12108     12110
     12105     12108     12111     12109     12108     12110     12109     12108     12111
     12110     12108     12111     12108     12111     12112     12108     12111     12113
     12108     12111     12114     12112     12111     12113     12112     12111     12114
     12113     12111     12114     12111     12114     12115     12111     12114     12116
     12111     12114     12117     12115     12114     12116     12115     12114     12117
     12116     12114     12117     12114     12117     12118     12114     12117     12119
     12114     12117     12120     12118     12117     12119     12118     12117     12120
     12119     12117     12120     12117     12120     12121     12117     12120     12122
     12117     12120     12123     12121     12120     12122     12121     12120     12123
     12122     12120     12123     12074     12124     12125     12074     12124     12126
     12074     12124     12127     12125     12124     12126     12125     12124     12127
     12126     12124     12127     12124     12127     12128     12124     12127     12129
     12124     12127     12130     12128     12127     12129     12128     12127     12130
     12129     12127     12130     12127     12130     12131     12127     12130     12132
     12127     12130     12133     12131     12130     12132     12131     12130     12133
     12132     12130     12133     12130     12133     12134     12130     12133     12135
     12130     12133     12136     12134     12133     12135     12134     12133     12136
     12135     12133     12136     12133     12136     12137     12133     12136     12138
     12133     12136     12139     12137     12136     12138     12137     12136     12139
     12138     12136     12139     12136     12139     12140     12136     12139     12141
     12136     12139     12142     12140     12139     12141     12140     12139     12142
     12141     12139     12142     12139     12142     12143     12139     12142     12144
     12139     12142     12145     12143     12142     12144     12143     12142     12145
     12144     12142     12145     12142     12145     12146     12142     12145     12147
     12142     12145     12148     12146     12145     12147     12146     12145     12148
     12147     12145     12148     12145     12148     12149     12145     12148     12150
     12145     12148     12151     12149     12148     12150     12149     12148     12151
     12150     12148     12151     12148     12151     12152     12148     12151     12153
     12148     12151     12154     12152     12151     12153     12152     12151     12154
     12153     12151     12154     12151     12154     12155     12151     12154     12156
     12151     12154     12157     12155     12154     12156     12155     12154     12157
     12156     12154     12157     12154     12157     12158     12154     12157     12159
     12154     12157     12160     12158     12157     12159     12158     12157     12160
     12159     12157     12160     12157     12160     12161     12157     12160     12162
     12157     12160     12163     12161     12160     12162     12161     12160     12163
     12162     12160     12163     12160     12163     12164     12160     12163     12165
     12160     12163     12166     12164     12163     12165     12164     12163     12166
     12165     12163     12166     12168     12167     12171     12168     12167     12175
     12168     12167     12179     12171     12167     12175     12171     12167     12179
     12175     12167     12179     12167     12168     12169     12167     12168     12170
     12167     12168     12183     12169     12168     12170     12169     12168     12183
     12170     12168     12183     12167     12171     12172     12167     12171     12173
     12167     12171     12174     12172     12171     12173     12172     12171     12174
     12173     12171     12174     12167     12175     12176     12167     12175     12177
     12167     12175     12178     12176     12175     12177     12176     12175     12178
     12177     12175     12178     12167     12179     12180     12167     12179     12181
     12167     12179     12182     12180     12179     12181     12180     12179     12182
     12181     12179     12182     12168     12183     12184     12168     12183     12185
     12168     12183     12189     12184     12183     12185     12184     12183     12189
     12185     12183     12189     12187     12186     12188     12187     12186     12189
     12187     12186     12190     12188     12186     12189     12188     12186     12190
     12189     12186     12190     12183     12189     12186     12186     12190     12191
     12190     12191     12192     12190     12191     12193     12190     12191     12194
     12192     12191     12193     12192     12191     12194     12193     12191     12194
     12191     12194     12195     12191     12194     12196     12191     12194     12202
     12195     12194     12196     12195     12194     12202     12196     12194     12202
     12194     12196     12197     12196     12197     12198     12196     12197     12199
     12198     12197     12199     12197     12199     12200     12197     12199     12201
     12197     12199     12211     12200     12199     12201     12200     12199     12211
     12201     12199     12211     12194     12202     12203     12194     12202     12204
     12194     12202     12205     12203     12202     12204     12203     12202     12205
     12204     12202     12205     12202     12205     12206     12205     12206     12207
     12205     12206     12208     12207     12206     12208     12206     12208     12209
     12206     12208     12210     12206     12208     12258     12209     12208     12210
     12209     12208     12258     12210     12208     12258     12199     12211     12212
     12199     12211     12213     12199     12211     12214     12212     12211     12213
     12212     12211     12214     12213     12211     12214     12211     12214     12215
     12211     12214     12216     12211     12214     12217     12215     12214     12216
     12215     12214     12217     12216     12214     12217     12214     12217     12218
     12214     12217     12219     12214     12217     12220     12218     12217     12219
     12218     12217     12220     12219     12217     12220     12217     12220     12221
     12217     12220     12222     12217     12220     12223     12221     12220     12222
     12221     12220     12223     12222     12220     12223     12220     12223     12224
     12220     12223     12225     12220     12223     12226     12224     12223     12225
     12224     12223     12226     12225     12223     12226     12223     12226     12227
     12223     12226     12228     12223     12226     12229     12227     12226     12228
     12227     12226     12229     12228     12226     12229     12226     12229     12230
     12226     12229     12231     12230     12229     12231     12229     12231     12232
     12229     12231     12233     12232     12231     12233     12231     12233     12234
     12231     12233     12235     12231     12233     12236     12234     12233     12235
     12234     12233     12236     12235     12233     12236     12233     12236     12237
     12233     12236     12238     12233     12236     12239     12237     12236     12238
     12237     12236     12239     12238     12236     12239     12236     12239     12240
     12236     12239     12241     12236     12239     12242     12240     12239     12241
     12240     12239     12242     12241     12239     12242     12239     12242     12243
     12239     12242     12244     12239     12242     12245     12243     12242     12244
     12243     12242     12245     12244     12242     12245     12242     12245     12246
     12242     12245     12247     12242     12245     12248     12246     12245     12247
     12246     12245     12248     12247     12245     12248     12245     12248     12249
     12245     12248     12250     12245     12248     12251     12249     12248     12250
     12249     12248     12251     12250     12248     12251     12248     12251     12252
     12248     12251     12253     12248     12251     12254     12252     12251     12253
     12252     12251     12254     12253     12251     12254     12251     12254     12255
     12251     12254     12256     12251     12254     12257     12255     12254     12256
     12255     12254     12257     12256     12254     12257     12208     12258     12259
     12208     12258     12260     12208     12258     12261     12259     12258     12260
     12259     12258     12261     12260     12258     12261     12258     12261     12262
     12258     12261     12263     12258     12261     12264     12262     12261     12263
     12262     12261     12264     12263     12261     12264     12261     12264     12265
     12261     12264     12266     12261     12264     12267     12265     12264     12266
     12265     12264     12267     12266     12264     12267     12264     12267     12268
     12264     12267     12269     12264     12267     12270     12268     12267     12269
     12268     12267     12270     12269     12267     12270     12267     12270     12271
     12267     12270     12272     12267     12270     12273     12271     12270     12272
     12271     12270     12273     12272     12270     12273     12270     12273     12274
     12270     12273     12275     12270     12273     12276     12274     12273     12275
     12274     12273     12276     12275     12273     12276     12273     12276     12277
     12273     12276     12278     12273     12276     12279     12277     12276     12278
     12277     12276     12279     12278     12276     12279     12276     12279     12280
     12276     12279     12281     12276     12279     12282     12280     12279     12281
     12280     12279     12282     12281     12279     12282     12279     12282     12283
     12279     12282     12284     12279     12282     12285     12283     12282     12284
     12283     12282     12285     12284     12282     12285     12282     12285     12286
     12282     12285     12287     12282     12285     12288     12286     12285     12287
     12286     12285     12288     12287     12285     12288     12285     12288     12289
     12285     12288     12290     12285     12288     12291     12289     12288     12290
     12289     12288     12291     12290     12288     12291     12288     12291     12292
     12288     12291     12293     12288     12291     12294     12292     12291     12293
     12292     12291     12294     12293     12291     12294     12291     12294     12295
     12291     12294     12296     12291     12294     12297     12295     12294     12296
     12295     12294     12297     12296     12294     12297     12294     12297     12298
     12294     12297     12299     12294     12297     12300     12298     12297     12299
     12298     12297     12300     12299     12297     12300     12302     12301     12305
     12302     12301     12309     12302     12301     12313     12305     12301     12309
     12305     12301     12313     12309     12301     12313     12301     12302     12303
     12301     12302     12304     12301     12302     12317     12303     12302     12304
     12303     12302     12317     12304     12302     12317     12301     12305     12306
     12301     12305     12307     12301     12305     12308     12306     12305     12307
     12306     12305     12308     12307     12305     12308     12301     12309     12310
     12301     12309     12311     12301     12309     12312     12310     12309     12311
     12310     12309     12312     12311     12309     12312     12301     12313     12314
     12301     12313     12315     12301     12313     12316     12314     12313     12315
     12314     12313     12316     12315     12313     12316     12302     12317     12318
     12302     12317     12319     12302     12317     12323     12318     12317     12319
     12318     12317     12323     12319     12317     12323     12321     12320     12322
     12321     12320     12323     12321     12320     12324     12322     12320     12323
     12322     12320     12324     12323     12320     12324     12317     12323     12320
     12320     12324     12325     12324     12325     12326     12324     12325     12327
     12324     12325     12328     12326     12325     12327     12326     12325     12328
     12327     12325     12328     12325     12328     12329     12325     12328     12330
     12325     12328     12336     12329     12328     12330     12329     12328     12336
     12330     12328     12336     12328     12330     12331     12330     12331     12332
     12330     12331     12333     12332     12331     12333     12331     12333     12334
     12331     12333     12335     12331     12333     12345     12334     12333     12335
     12334     12333     12345     12335     12333     12345     12328     12336     12337
     12328     12336     12338     12328     12336     12339     12337     12336     12338
     12337     12336     12339     12338     12336     12339     12336     12339     12340
     12339     12340     12341     12339     12340     12342     12341     12340     12342
     12340     12342     12343     12340     12342     12344     12340     12342     12392
     12343     12342     12344     12343     12342     12392     12344     12342     12392
     12333     12345     12346     12333     12345     12347     12333     12345     12348
     12346     12345     12347     12346     12345     12348     12347     12345     12348
     12345     12348     12349     12345     12348     12350     12345     12348     12351
     12349     12348     12350     12349     12348     12351     12350     12348     12351
     12348     12351     12352     12348     12351     12353     12348     12351     12354
     12352     12351     12353     12352     12351     12354     12353     12351     12354
     12351     12354     12355     12351     12354     12356     12351     12354     12357
     12355     12354     12356     12355     12354     12357     12356     12354     12357
     12354     12357     12358     12354     12357     12359     12354     12357     12360
     12358     12357     12359     12358     12357     12360     12359     12357     12360
     12357     12360     12361     12357     12360     12362     12357     12360     12363
     12361     12360     12362     12361     12360     12363     12362     12360     12363
     12360     12363     12364     12360     12363     12365     12364     12363     12365
     12363     12365     12366     12363     12365     12367     12366     12365     12367
     12365     12367     12368     12365     12367     12369     12365     12367     12370
     12368     12367     12369     12368     12367     12370     12369     12367     12370
     12367     12370     12371     12367     12370     12372     12367     12370     12373
     12371     12370     12372     12371     12370     12373     12372     12370     12373
     12370     12373     12374     12370     12373     12375     12370     12373     12376
     12374     12373     12375     12374     12373     12376     12375     12373     12376
     12373     12376     12377     12373     12376     12378     12373     12376     12379
     12377     12376     12378     12377     12376     12379     12378     12376     12379
     12376     12379     12380     12376     12379     12381     12376     12379     12382
     12380     12379     12381     12380     12379     12382     12381     12379     12382
     12379     12382     12383     12379     12382     12384     12379     12382     12385
     12383     12382     12384     12383     12382     12385     12384     12382     12385
     12382     12385     12386     12382     12385     12387     12382     12385     12388
     12386     12385     12387     12386     12385     12388     12387     12385     12388
     12385     12388     12389     12385     12388     12390     12385     12388     12391
     12389     12388     12390     12389     12388     12391     12390     12388     12391
     12342     12392     12393     12342     12392     12394     12342     12392     12395
     12393     12392     12394     12393     12392     12395     12394     12392     12395
     12392     12395     12396     12392     12395     12397     12392     12395     12398
     12396     12395     12397     12396     12395     12398     12397     12395     12398
     12395     12398     12399     12395     12398     12400     12395     12398     12401
     12399     12398     12400     12399     12398     12401     12400     12398     12401
     12398     12401     12402     12398     12401     12403     12398     12401     12404
     12402     12401     12403     12402     12401     12404     12403     12401     12404
     12401     12404     12405     12401     12404     12406     12401     12404     12407
     12405     12404     12406     12405     12404     12407     12406     12404     12407
     12404     12407     12408     12404     12407     12409     12404     12407     12410
     12408     12407     12409     12408     12407     12410     12409     12407     12410
     12407     12410     12411     12407     12410     12412     12407     12410     12413
     12411     12410     12412     12411     12410     12413     12412     12410     12413
     12410     12413     12414     12410     12413     12415     12410     12413     12416
     12414     12413     12415     12414     12413     12416     12415     12413     12416
     12413     12416     12417     12413     12416     12418     12413     12416     12419
     12417     12416     12418     12417     12416     12419     12418     12416     12419
     12416     12419     12420     12416     12419     12421     12416     12419     12422
     12420     12419     12421     12420     12419     12422     12421     12419     12422
     12419     12422     12423     12419     12422     12424     12419     12422     12425
     12423     12422     12424     12423     12422     12425     12424     12422     12425
     12422     12425     12426     12422     12425     12427     12422     12425     12428
     12426     12425     12427     12426     12425     12428     12427     12425     12428
     12425     12428     12429     12425     12428     12430     12425     12428     12431
     12429     12428     12430     12429     12428     12431     12430     12428     12431
     12428     12431     12432     12428     12431     12433     12428     12431     12434
     12432     12431     12433     12432     12431     12434     12433     12431     12434
     12436     12435     12439     12436     12435     12443     12436     12435     12447
     12439     12435     12443     12439     12435     12447     12443     12435     12447
     12435     12436     12437     12435     12436     12438     12435     12436     12451
     12437     12436     12438     12437     12436     12451     12438     12436     12451
     12435     12439     12440     12435     12439     12441     12435     12439     12442
     12440     12439     12441     12440     12439     12442     12441     12439     12442
     12435     12443     12444     12435     12443     12445     12435     12443     12446
     12444     12443     12445     12444     12443     12446     12445     12443     12446
     12435     12447     12448     12435     12447     12449     12435     12447     12450
     12448     12447     12449     12448     12447     12450     12449     12447     12450
     12436     12451     12452     12436     12451     12453     12436     12451     12457
     12452     12451     12453     12452     12451     12457     12453     12451     12457
     12455     12454     12456     12455     12454     12457     12455     12454     12458
     12456     12454     12457     12456     12454     12458     12457     12454     12458
     12451     12457     12454     12454     12458     12459     12458     12459     12460
     12458     12459     12461     12458     12459     12462     12460     12459     12461
     12460     12459     12462     12461     12459     12462     12459     12462     12463
     12459     12462     12464     12459     12462     12470     12463     12462     12464
     12463     12462     12470     12464     12462     12470     12462     12464     12465
     12464     12465     12466     12464     12465     12467     12466     12465     12467
     12465     12467     12468     12465     12467     12469     12465     12467     12479
     12468     12467     12469     12468     12467     12479     12469     12467     12479
     12462     12470     12471     12462     12470     12472     12462     12470     12473
     12471     12470     12472     12471     12470     12473     12472     12470     12473
     12470     12473     12474     12473     12474     12475     12473     12474     12476
     12475     12474     12476     12474     12476     12477     12474     12476     12478
     12474     12476     12526     12477     12476     12478     12477     12476     12526
     12478     12476     12526     12467     12479     12480     12467     12479     12481
     12467     12479     12482     12480     12479     12481     12480     12479     12482
     12481     12479     12482     12479     12482     12483     12479     12482     12484
     12479     12482     12485     12483     12482     12484     12483     12482     12485
     12484     12482     12485     12482     12485     12486     12482     12485     12487
     12482     12485     12488     12486     12485     12487     12486     12485     12488
     12487     12485     12488     12485     12488     12489     12485     12488     12490
     12485     12488     12491     12489     12488     12490     12489     12488     12491
     12490     12488     12491     12488     12491     12492     12488     12491     12493
     12488     12491     12494     12492     12491     12493     12492     12491     12494
     12493     12491     12494     12491     12494     12495     12491     12494     12496
     12491     12494     12497     12495     12494     12496     12495     12494     12497
     12496     12494     12497     12494     12497     12498     12494     12497     12499
     12498     12497     12499     12497     12499     12500     12497     12499     12501
     12500     12499     12501     12499     12501     12502     12499     12501     12503
     12499     12501     12504     12502     12501     12503     12502     12501     12504
     12503     12501     12504     12501     12504     12505     12501     12504     12506
     12501     12504     12507     12505     12504     12506     12505     12504     12507
     12506     12504     12507     12504     12507     12508     12504     12507     12509
     12504     12507     12510     12508     12507     12509     12508     12507     12510
     12509     12507     12510     12507     12510     12511     12507     12510     12512
     12507     12510     12513     12511     12510     12512     12511     12510     12513
     12512     12510     12513     12510     12513     12514     12510     12513     12515
     12510     12513     12516     12514     12513     12515     12514     12513     12516
     12515     12513     12516     12513     12516     12517     12513     12516     12518
     12513     12516     12519     12517     12516     12518     12517     12516     12519
     12518     12516     12519     12516     12519     12520     12516     12519     12521
     12516     12519     12522     12520     12519     12521     12520     12519     12522
     12521     12519     12522     12519     12522     12523     12519     12522     12524
     12519     12522     12525     12523     12522     12524     12523     12522     12525
     12524     12522     12525     12476     12526     12527     12476     12526     12528
     12476     12526     12529     12527     12526     12528     12527     12526     12529
     12528     12526     12529     12526     12529     12530     12526     12529     12531
     12526     12529     12532     12530     12529     12531     12530     12529     12532
     12531     12529     12532     12529     12532     12533     12529     12532     12534
     12529     12532     12535     12533     12532     12534     12533     12532     12535
     12534     12532     12535     12532     12535     12536     12532     12535     12537
     12532     12535     12538     12536     12535     12537     12536     12535     12538
     12537     12535     12538     12535     12538     12539     12535     12538     12540
     12535     12538     12541     12539     12538     12540     12539     12538     12541
     12540     12538     12541     12538     12541     12542     12538     12541     12543
     12538     12541     12544     12542     12541     12543     12542     12541     12544
     12543     12541     12544     12541     12544     12545     12541     12544     12546
     12541     12544     12547     12545     12544     12546     12545     12544     12547
     12546     12544     12547     12544     12547     12548     12544     12547     12549
     12544     12547     12550     12548     12547     12549     12548     12547     12550
     12549     12547     12550     12547     12550     12551     12547     12550     12552
     12547     12550     12553     12551     12550     12552     12551     12550     12553
     12552     12550     12553     12550     12553     12554     12550     12553     12555
     12550     12553     12556     12554     12553     12555     12554     12553     12556
     12555     12553     12556     12553     12556     12557     12553     12556     12558
     12553     12556     12559     12557     12556     12558     12557     12556     12559
     12558     12556     12559     12556     12559     12560     12556     12559     12561
     12556     12559     12562     12560     12559     12561     12560     12559     12562
     12561     12559     12562     12559     12562     12563     12559     12562     12564
     12559     12562     12565     12563     12562     12564     12563     12562     12565
     12564     12562     12565     12562     12565     12566     12562     12565     12567
     12562     12565     12568     12566     12565     12567     12566     12565     12568
     12567     12565     12568     12570     12569     12573     12570     12569     12577
     12570     12569     12581     12573     12569     12577     12573     12569     12581
     12577     12569     12581     12569     12570     12571     12569     12570     12572
     12569     12570     12585     12571     12570     12572     12571     12570     12585
     12572     12570     12585     12569     12573     12574     12569     12573     12575
     12569     12573     12576     12574     12573     12575     12574     12573     12576
     12575     12573     12576     12569     12577     12578     12569     12577     12579
     12569     12577     12580     12578     12577     12579     12578     12577     12580
     12579     12577     12580     12569     12581     12582     12569     12581     12583
     12569     12581     12584     12582     12581     12583     12582     12581     12584
     12583     12581     12584     12570     12585     12586     12570     12585     12587
     12570     12585     12591     12586     12585     12587     12586     12585     12591
     12587     12585     12591     12589     12588     12590     12589     12588     12591
     12589     12588     12592     12590     12588     12591     12590     12588     12592
     12591     12588     12592     12585     12591     12588     12588     12592     12593
     12592     12593     12594     12592     12593     12595     12592     12593     12596
     12594     12593     12595     12594     12593     12596     12595     12593     12596
     12593     12596     12597     12593     12596     12598     12593     12596     12604
     12597     12596     12598     12597     12596     12604     12598     12596     12604
     12596     12598     12599     12598     12599     12600     12598     12599     12601
     12600     12599     12601     12599     12601     12602     12599     12601     12603
     12599     12601     12613     12602     12601     12603     12602     12601     12613
     12603     12601     12613     12596     12604     12605     12596     12604     12606
     12596     12604     12607     12605     12604     12606     12605     12604     12607
     12606     12604     12607     12604     12607     12608     12607     12608     12609
     12607     12608     12610     12609     12608     12610     12608     12610     12611
     12608     12610     12612     12608     12610     12660     12611     12610     12612
     12611     12610     12660     12612     12610     12660     12601     12613     12614
     12601     12613     12615     12601     12613     12616     12614     12613     12615
     12614     12613     12616     12615     12613     12616     12613     12616     12617
     12613     12616     12618     12613     12616     12619     12617     12616     12618
     12617     12616     12619     12618     12616     12619     12616     12619     12620
     12616     12619     12621     12616     12619     12622     12620     12619     12621
     12620     12619     12622     12621     12619     12622     12619     12622     12623
     12619     12622     12624     12619     12622     12625     12623     12622     12624
     12623     12622     12625     12624     12622     12625     12622     12625     12626
     12622     12625     12627     12622     12625     12628     12626     12625     12627
     12626     12625     12628     12627     12625     12628     12625     12628     12629
     12625     12628     12630     12625     12628     12631     12629     12628     12630
     12629     12628     12631     12630     12628     12631     12628     12631     12632
     12628     12631     12633     12632     12631     12633     12631     12633     12634
     12631     12633     12635     12634     12633     12635     12633     12635     12636
     12633     12635     12637     12633     12635     12638     12636     12635     12637
     12636     12635     12638     12637     12635     12638     12635     12638     12639
     12635     12638     12640     12635     12638     12641     12639     12638     12640
     12639     12638     12641     12640     12638     12641     12638     12641     12642
     12638     12641     12643     12638     12641     12644     12642     12641     12643
     12642     12641     12644     12643     12641     12644     12641     12644     12645
     12641     12644     12646     12641     12644     12647     12645     12644     12646
     12645     12644     12647     12646     12644     12647     12644     12647     12648
     12644     12647     12649     12644     12647     12650     12648     12647     12649
     12648     12647     12650     12649     12647     12650     12647     12650     12651
     12647     12650     12652     12647     12650     12653     12651     12650     12652
     12651     12650     12653     12652     12650     12653     12650     12653     12654
     12650     12653     12655     12650     12653     12656     12654     12653     12655
     12654     12653     12656     12655     12653     12656     12653     12656     12657
     12653     12656     12658     12653     12656     12659     12657     12656     12658
     12657     12656     12659     12658     12656     12659     12610     12660     12661
     12610     12660     12662     12610     12660     12663     12661     12660     12662
     12661     12660     12663     12662     12660     12663     12660     12663     12664
     12660     12663     12665     12660     12663     12666     12664     12663     12665
     12664     12663     12666     12665     12663     12666     12663     12666     12667
     12663     12666     12668     12663     12666     12669     12667     12666     12668
     12667     12666     12669     12668     12666     12669     12666     12669     12670
     12666     12669     12671     12666     12669     12672     12670     12669     12671
     12670     12669     12672     12671     12669     12672     12669     12672     12673
     12669     12672     12674     12669     12672     12675     12673     12672     12674
     12673     12672     12675     12674     12672     12675     12672     12675     12676
     12672     12675     12677     12672     12675     12678     12676     12675     12677
     12676     12675     12678     12677     12675     12678     12675     12678     12679
     12675     12678     12680     12675     12678     12681     12679     12678     12680
     12679     12678     12681     12680     12678     12681     12678     12681     12682
     12678     12681     12683     12678     12681     12684     12682     12681     12683
     12682     12681     12684     12683     12681     12684     12681     12684     12685
     12681     12684     12686     12681     12684     12687     12685     12684     12686
     12685     12684     12687     12686     12684     12687     12684     12687     12688
     12684     12687     12689     12684     12687     12690     12688     12687     12689
     12688     12687     12690     12689     12687     12690     12687     12690     12691
     12687     12690     12692     12687     12690     12693     12691     12690     12692
     12691     12690     12693     12692     12690     12693     12690     12693     12694
     12690     12693     12695     12690     12693     12696     12694     12693     12695
     12694     12693     12696     12695     12693     12696     12693     12696     12697
     12693     12696     12698     12693     12696     12699     12697     12696     12698
     12697     12696     12699     12698     12696     12699     12696     12699     12700
     12696     12699     12701     12696     12699     12702     12700     12699     12701
     12700     12699     12702     12701     12699     12702     12704     12703     12707
     12704     12703     12711     12704     12703     12715     12707     12703     12711
     12707     12703     12715     12711     12703     12715     12703     12704     12705
     12703     12704     12706     12703     12704     12719     12705     12704     12706
     12705     12704     12719     12706     12704     12719     12703     12707     12708
     12703     12707     12709     12703     12707     12710     12708     12707     12709
     12708     12707     12710     12709     12707     12710     12703     12711     12712
     12703     12711     12713     12703     12711     12714     12712     12711     12713
     12712     12711     12714     12713     12711     12714     12703     12715     12716
     12703     12715     12717     12703     12715     12718     12716     12715     12717
     12716     12715     12718     12717     12715     12718     12704     12719     12720
     12704     12719     12721     12704     12719     12725     12720     12719     12721
     12720     12719     12725     12721     12719     12725     12723     12722     12724
     12723     12722     12725     12723     12722     12726     12724     12722     12725
     12724     12722     12726     12725     12722     12726     12719     12725     12722
     12722     12726     12727     12726     12727     12728     12726     12727     12729
     12726     12727     12730     12728     12727     12729     12728     12727     12730
     12729     12727     12730     12727     12730     12731     12727     12730     12732
     12727     12730     12738     12731     12730     12732     12731     12730     12738
     12732     12730     12738     12730     12732     12733     12732     12733     12734
     12732     12733     12735     12734     12733     12735     12733     12735     12736
     12733     12735     12737     12733     12735     12747     12736     12735     12737
     12736     12735     12747     12737     12735     12747     12730     12738     12739
     12730     12738     12740     12730     12738     12741     12739     12738     12740
     12739     12738     12741     12740     12738     12741     12738     12741     12742
     12741     12742     12743     12741     12742     12744     12743     12742     12744
     12742     12744     12745     12742     12744     12746     12742     12744     12794
     12745     12744     12746     12745     12744     12794     12746     12744     12794
     12735     12747     12748     12735     12747     12749     12735     12747     12750
     12748     12747     12749     12748     12747     12750     12749     12747     12750
     12747     12750     12751     12747     12750     12752     12747     12750     12753
     12751     12750     12752     12751     12750     12753     12752     12750     12753
     12750     12753     12754     12750     12753     12755     12750     12753     12756
     12754     12753     12755     12754     12753     12756     12755     12753     12756
     12753     12756     12757     12753     12756     12758     12753     12756     12759
     12757     12756     12758     12757     12756     12759     12758     12756     12759
     12756     12759     12760     12756     12759     12761     12756     12759     12762
     12760     12759     12761     12760     12759     12762     12761     12759     12762
     12759     12762     12763     12759     12762     12764     12759     12762     12765
     12763     12762     12764     12763     12762     12765     12764     12762     12765
     12762     12765     12766     12762     12765     12767     12766     12765     12767
     12765     12767     12768     12765     12767     12769     12768     12767     12769
     12767     12769     12770     12767     12769     12771     12767     12769     12772
     12770     12769     12771     12770     12769     12772     12771     12769     12772
     12769     12772     12773     12769     12772     12774     12769     12772     12775
     12773     12772     12774     12773     12772     12775     12774     12772     12775
     12772     12775     12776     12772     12775     12777     12772     12775     12778
     12776     12775     12777     12776     12775     12778     12777     12775     12778
     12775     12778     12779     12775     12778     12780     12775     12778     12781
     12779     12778     12780     12779     12778     12781     12780     12778     12781
     12778     12781     12782     12778     12781     12783     12778     12781     12784
     12782     12781     12783     12782     12781     12784     12783     12781     12784
     12781     12784     12785     12781     12784     12786     12781     12784     12787
     12785     12784     12786     12785     12784     12787     12786     12784     12787
     12784     12787     12788     12784     12787     12789     12784     12787     12790
     12788     12787     12789     12788     12787     12790     12789     12787     12790
     12787     12790     12791     12787     12790     12792     12787     12790     12793
     12791     12790     12792     12791     12790     12793     12792     12790     12793
     12744     12794     12795     12744     12794     12796     12744     12794     12797
     12795     12794     12796     12795     12794     12797     12796     12794     12797
     12794     12797     12798     12794     12797     12799     12794     12797     12800
     12798     12797     12799     12798     12797     12800     12799     12797     12800
     12797     12800     12801     12797     12800     12802     12797     12800     12803
     12801     12800     12802     12801     12800     12803     12802     12800     12803
     12800     12803     12804     12800     12803     12805     12800     12803     12806
     12804     12803     12805     12804     12803     12806     12805     12803     12806
     12803     12806     12807     12803     12806     12808     12803     12806     12809
     12807     12806     12808     12807     12806     12809     12808     12806     12809
     12806     12809     12810     12806     12809     12811     12806     12809     12812
     12810     12809     12811     12810     12809     12812     12811     12809     12812
     12809     12812     12813     12809     12812     12814     12809     12812     12815
     12813     12812     12814     12813     12812     12815     12814     12812     12815
     12812     12815     12816     12812     12815     12817     12812     12815     12818
     12816     12815     12817     12816     12815     12818     12817     12815     12818
     12815     12818     12819     12815     12818     12820     12815     12818     12821
     12819     12818     12820     12819     12818     12821     12820     12818     12821
     12818     12821     12822     12818     12821     12823     12818     12821     12824
     12822     12821     12823     12822     12821     12824     12823     12821     12824
     12821     12824     12825     12821     12824     12826     12821     12824     12827
     12825     12824     12826     12825     12824     12827     12826     12824     12827
     12824     12827     12828     12824     12827     12829     12824     12827     12830
     12828     12827     12829     12828     12827     12830     12829     12827     12830
     12827     12830     12831     12827     12830     12832     12827     12830     12833
     12831     12830     12832     12831     12830     12833     12832     12830     12833
     12830     12833     12834     12830     12833     12835     12830     12833     12836
     12834     12833     12835     12834     12833     12836     12835     12833     12836
     12838     12837     12841     12838     12837     12845     12838     12837     12849
     12841     12837     12845     12841     12837     12849     12845     12837     12849
     12837     12838     12839     12837     12838     12840     12837     12838     12853
     12839     12838     12840     12839     12838     12853     12840     12838     12853
     12837     12841     12842     12837     12841     12843     12837     12841     12844
     12842     12841     12843     12842     12841     12844     12843     12841     12844
     12837     12845     12846     12837     12845     12847     12837     12845     12848
     12846     12845     12847     12846     12845     12848     12847     12845     12848
     12837     12849     12850     12837     12849     12851     12837     12849     12852
     12850     12849     12851     12850     12849     12852     12851     12849     12852
     12838     12853     12854     12838     12853     12855     12838     12853     12859
     12854     12853     12855     12854     12853     12859     12855     12853     12859
     12857     12856     12858     12857     12856     12859     12857     12856     12860
     12858     12856     12859     12858     12856     12860     12859     12856     12860
     12853     12859     12856     12856     12860     12861     12860     12861     12862
     12860     12861     12863     12860     12861     12864     12862     12861     12863
     12862     12861     12864     12863     12861     12864     12861     12864     12865
     12861     12864     12866     12861     12864     12872     12865     12864     12866
     12865     12864     12872     12866     12864     12872     12864     12866     12867
     12866     12867     12868     12866     12867     12869     12868     12867     12869
     12867     12869     12870     12867     12869     12871     12867     12869     12881
     12870     12869     12871     12870     12869     12881     12871     12869     12881
     12864     12872     12873     12864     12872     12874     12864     12872     12875
     12873     12872     12874     12873     12872     12875     12874     12872     12875
     12872     12875     12876     12875     12876     12877     12875     12876     12878
     12877     12876     12878     12876     12878     12879     12876     12878     12880
     12876     12878     12928     12879     12878     12880     12879     12878     12928
     12880     12878     12928     12869     12881     12882     12869     12881     12883
     12869     12881     12884     12882     12881     12883     12882     12881     12884
     12883     12881     12884     12881     12884     12885     12881     12884     12886
     12881     12884     12887     12885     12884     12886     12885     12884     12887
     12886     12884     12887     12884     12887     12888     12884     12887     12889
     12884     12887     12890     12888     12887     12889     12888     12887     12890
     12889     12887     12890     12887     12890     12891     12887     12890     12892
     12887     12890     12893     12891     12890     12892     12891     12890     12893
     12892     12890     12893     12890     12893     12894     12890     12893     12895
     12890     12893     12896     12894     12893     12895     12894     12893     12896
     12895     12893     12896     12893     12896     12897     12893     12896     12898
     12893     12896     12899     12897     12896     12898     12897     12896     12899
     12898     12896     12899     12896     12899     12900     12896     12899     12901
     12900     12899     12901     12899     12901     12902     12899     12901     12903
     12902     12901     12903     12901     12903     12904     12901     12903     12905
     12901     12903     12906     12904     12903     12905     12904     12903     12906
     12905     12903     12906     12903     12906     12907     12903     12906     12908
     12903     12906     12909     12907     12906     12908     12907     12906     12909
     12908     12906     12909     12906     12909     12910     12906     12909     12911
     12906     12909     12912     12910     12909     12911     12910     12909     12912
     12911     12909     12912     12909     12912     12913     12909     12912     12914
     12909     12912     12915     12913     12912     12914     12913     12912     12915
     12914     12912     12915     12912     12915     12916     12912     12915     12917
     12912     12915     12918     12916     12915     12917     12916     12915     12918
     12917     12915     12918     12915     12918     12919     12915     12918     12920
     12915     12918     12921     12919     12918     12920     12919     12918     12921
     12920     12918     12921     12918     12921     12922     12918     12921     12923
     12918     12921     12924     12922     12921     12923     12922     12921     12924
     12923     12921     12924     12921     12924     12925     12921     12924     12926
     12921     12924     12927     12925     12924     12926     12925     12924     12927
     12926     12924     12927     12878     12928     12929     12878     12928     12930
     12878     12928     12931     12929     12928     12930     12929     12928     12931
     12930     12928     12931     12928     12931     12932     12928     12931     12933
     12928     12931     12934     12932     12931     12933     12932     12931     12934
     12933     12931     12934     12931     12934     12935     12931     12934     12936
     12931     12934     12937     12935     12934     12936     12935     12934     12937
     12936     12934     12937     12934     12937     12938     12934     12937     12939
     12934     12937     12940     12938     12937     12939     12938     12937     12940
     12939     12937     12940     12937     12940     12941     12937     12940     12942
     12937     12940     12943     12941     12940     12942     12941     12940     12943
     12942     12940     12943     12940     12943     12944     12940     12943     12945
     12940     12943     12946     12944     12943     12945     12944     12943     12946
     12945     12943     12946     12943     12946     12947     12943     12946     12948
     12943     12946     12949     12947     12946     12948     12947     12946     12949
     12948     12946     12949     12946     12949     12950     12946     12949     12951
     12946     12949     12952     12950     12949     12951     12950     12949     12952
     12951     12949     12952     12949     12952     12953     12949     12952     12954
     12949     12952     12955     12953     12952     12954     12953     12952     12955
     12954     12952     12955     12952     12955     12956     12952     12955     12957
     12952     12955     12958     12956     12955     12957     12956     12955     12958
     12957     12955     12958     12955     12958     12959     12955     12958     12960
     12955     12958     12961     12959     12958     12960     12959     12958     12961
     12960     12958     12961     12958     12961     12962     12958     12961     12963
     12958     12961     12964     12962     12961     12963     12962     12961     12964
     12963     12961     12964     12961     12964     12965     12961     12964     12966
     12961     12964     12967     12965     12964     12966     12965     12964     12967
     12966     12964     12967     12964     12967     12968     12964     12967     12969
     12964     12967     12970     12968     12967     12969     12968     12967     12970
     12969     12967     12970     12972     12971     12975     12972     12971     12979
     12972     12971     12983     12975     12971     12979     12975     12971     12983
     12979     12971     12983     12971     12972     12973     12971     12972     12974
     12971     12972     12987     12973     12972     12974     12973     12972     12987
     12974     12972     12987     12971     12975     12976     12971     12975     12977
     12971     12975     12978     12976     12975     12977     12976     12975     12978
     12977     12975     12978     12971     12979     12980     12971     12979     12981
     12971     12979     12982     12980     12979     12981     12980     12979     12982
     12981     12979     12982     12971     12983     12984     12971     12983     12985
     12971     12983     12986     12984     12983     12985     12984     12983     12986
     12985     12983     12986     12972     12987     12988     12972     12987     12989
     12972     12987     12993     12988     12987     12989     12988     12987     12993
     12989     12987     12993     12991     12990     12992     12991     12990     12993
     12991     12990     12994     12992     12990     12993     12992     12990     12994
     12993     12990     12994     12987     12993     12990     12990     12994     12995
     12994     12995     12996     12994     12995     12997     12994     12995     12998
     12996     12995     12997     12996     12995     12998     12997     12995     12998
     12995     12998     12999     12995     12998     13000     12995     12998     13006
     12999     12998     13000     12999     12998     13006     13000     12998     13006
     12998     13000     13001     13000     13001     13002     13000     13001     13003
     13002     13001     13003     13001     13003     13004     13001     13003     13005
     13001     13003     13015     13004     13003     13005     13004     13003     13015
     13005     13003     13015     12998     13006     13007     12998     13006     13008
     12998     13006     13009     13007     13006     13008     13007     13006     13009
     13008     13006     13009     13006     13009     13010     13009     13010     13011
     13009     13010     13012     13011     13010     13012     13010     13012     13013
     13010     13012     13014     13010     13012     13062     13013     13012     13014
     13013     13012     13062     13014     13012     13062     13003     13015     13016
     13003     13015     13017     13003     13015     13018     13016     13015     13017
     13016     13015     13018     13017     13015     13018     13015     13018     13019
     13015     13018     13020     13015     13018     13021     13019     13018     13020
     13019     13018     13021     13020     13018     13021     13018     13021     13022
     13018     13021     13023     13018     13021     13024     13022     13021     13023
     13022     13021     13024     13023     13021     13024     13021     13024     13025
     13021     13024     13026     13021     13024     13027     13025     13024     13026
     13025     13024     13027     13026     13024     13027     13024     13027     13028
     13024     13027     13029     13024     13027     13030     13028     13027     13029
     13028     13027     13030     13029     13027     13030     13027     13030     13031
     13027     13030     13032     13027     13030     13033     13031     13030     13032
     13031     13030     13033     13032     13030     13033     13030     13033     13034
     13030     13033     13035     13034     13033     13035     13033     13035     13036
     13033     13035     13037     13036     13035     13037     13035     13037     13038
     13035     13037     13039     13035     13037     13040     13038     13037     13039
     13038     13037     13040     13039     13037     13040     13037     13040     13041
     13037     13040     13042     13037     13040     13043     13041     13040     13042
     13041     13040     13043     13042     13040     13043     13040     13043     13044
     13040     13043     13045     13040     13043     13046     13044     13043     13045
     13044     13043     13046     13045     13043     13046     13043     13046     13047
     13043     13046     13048     13043     13046     13049     13047     13046     13048
     13047     13046     13049     13048     13046     13049     13046     13049     13050
     13046     13049     13051     13046     13049     13052     13050     13049     13051
     13050     13049     13052     13051     13049     13052     13049     13052     13053
     13049     13052     13054     13049     13052     13055     13053     13052     13054
     13053     13052     13055     13054     13052     13055     13052     13055     13056
     13052     13055     13057     13052     13055     13058     13056     13055     13057
     13056     13055     13058     13057     13055     13058     13055     13058     13059
     13055     13058     13060     13055     13058     13061     13059     13058     13060
     13059     13058     13061     13060     13058     13061     13012     13062     13063
     13012     13062     13064     13012     13062     13065     13063     13062     13064
     13063     13062     13065     13064     13062     13065     13062     13065     13066
     13062     13065     13067     13062     13065     13068     13066     13065     13067
     13066     13065     13068     13067     13065     13068     13065     13068     13069
     13065     13068     13070     13065     13068     13071     13069     13068     13070
     13069     13068     13071     13070     13068     13071     13068     13071     13072
     13068     13071     13073     13068     13071     13074     13072     13071     13073
     13072     13071     13074     13073     13071     13074     13071     13074     13075
     13071     13074     13076     13071     13074     13077     13075     13074     13076
     13075     13074     13077     13076     13074     13077     13074     13077     13078
     13074     13077     13079     13074     13077     13080     13078     13077     13079
     13078     13077     13080     13079     13077     13080     13077     13080     13081
     13077     13080     13082     13077     13080     13083     13081     13080     13082
     13081     13080     13083     13082     13080     13083     13080     13083     13084
     13080     13083     13085     13080     13083     13086     13084     13083     13085
     13084     13083     13086     13085     13083     13086     13083     13086     13087
     13083     13086     13088     13083     13086     13089     13087     13086     13088
     13087     13086     13089     13088     13086     13089     13086     13089     13090
     13086     13089     13091     13086     13089     13092     13090     13089     13091
     13090     13089     13092     13091     13089     13092     13089     13092     13093
     13089     13092     13094     13089     13092     13095     13093     13092     13094
     13093     13092     13095     13094     13092     13095     13092     13095     13096
     13092     13095     13097     13092     13095     13098     13096     13095     13097
     13096     13095     13098     13097     13095     13098     13095     13098     13099
     13095     13098     13100     13095     13098     13101     13099     13098     13100
     13099     13098     13101     13100     13098     13101     13098     13101     13102
     13098     13101     13103     13098     13101     13104     13102     13101     13103
     13102     13101     13104     13103     13101     13104     13106     13105     13109
     13106     13105     13113     13106     13105     13117     13109     13105     13113
     13109     13105     13117     13113     13105     13117     13105     13106     13107
     13105     13106     13108     13105     13106     13121     13107     13106     13108
     13107     13106     13121     13108     13106     13121     13105     13109     13110
     13105     13109     13111     13105     13109     13112     13110     13109     13111
     13110     13109     13112     13111     13109     13112     13105     13113     13114
     13105     13113     13115     13105     13113     13116     13114     13113     13115
     13114     13113     13116     13115     13113     13116     13105     13117     13118
     13105     13117     13119     13105     13117     13120     13118     13117     13119
     13118     13117     13120     13119     13117     13120     13106     13121     13122
     13106     13121     13123     13106     13121     13127     13122     13121     13123
     13122     13121     13127     13123     13121     13127     13125     13124     13126
     13125     13124     13127     13125     13124     13128     13126     13124     13127
     13126     13124     13128     13127     13124     13128     13121     13127     13124
     13124     13128     13129     13128     13129     13130     13128     13129     13131
     13128     13129     13132     13130     13129     13131     13130     13129     13132
     13131     13129     13132     13129     13132     13133     13129     13132     13134
     13129     13132     13140     13133     13132     13134     13133     13132     13140
     13134     13132     13140     13132     13134     13135     13134     13135     13136
     13134     13135     13137     13136     13135     13137     13135     13137     13138
     13135     13137     13139     13135     13137     13149     13138     13137     13139
     13138     13137     13149     13139     13137     13149     13132     13140     13141
     13132     13140     13142     13132     13140     13143     13141     13140     13142
     13141     13140     13143     13142     13140     13143     13140     13143     13144
     13143     13144     13145     13143     13144     13146     13145     13144     13146
     13144     13146     13147     13144     13146     13148     13144     13146     13196
     13147     13146     13148     13147     13146     13196     13148     13146     13196
     13137     13149     13150     13137     13149     13151     13137     13149     13152
     13150     13149     13151     13150     13149     13152     13151     13149     13152
     13149     13152     13153     13149     13152     13154     13149     13152     13155
     13153     13152     13154     13153     13152     13155     13154     13152     13155
     13152     13155     13156     13152     13155     13157     13152     13155     13158
     13156     13155     13157     13156     13155     13158     13157     13155     13158
     13155     13158     13159     13155     13158     13160     13155     13158     13161
     13159     13158     13160     13159     13158     13161     13160     13158     13161
     13158     13161     13162     13158     13161     13163     13158     13161     13164
     13162     13161     13163     13162     13161     13164     13163     13161     13164
     13161     13164     13165     13161     13164     13166     13161     13164     13167
     13165     13164     13166     13165     13164     13167     13166     13164     13167
     13164     13167     13168     13164     13167     13169     13168     13167     13169
     13167     13169     13170     13167     13169     13171     13170     13169     13171
     13169     13171     13172     13169     13171     13173     13169     13171     13174
     13172     13171     13173     13172     13171     13174     13173     13171     13174
     13171     13174     13175     13171     13174     13176     13171     13174     13177
     13175     13174     13176     13175     13174     13177     13176     13174     13177
     13174     13177     13178     13174     13177     13179     13174     13177     13180
     13178     13177     13179     13178     13177     13180     13179     13177     13180
     13177     13180     13181     13177     13180     13182     13177     13180     13183
     13181     13180     13182     13181     13180     13183     13182     13180     13183
     13180     13183     13184     13180     13183     13185     13180     13183     13186
     13184     13183     13185     13184     13183     13186     13185     13183     13186
     13183     13186     13187     13183     13186     13188     13183     13186     13189
     13187     13186     13188     13187     13186     13189     13188     13186     13189
     13186     13189     13190     13186     13189     13191     13186     13189     13192
     13190     13189     13191     13190     13189     13192     13191     13189     13192
     13189     13192     13193     13189     13192     13194     13189     13192     13195
     13193     13192     13194     13193     13192     13195     13194     13192     13195
     13146     13196     13197     13146     13196     13198     13146     13196     13199
     13197     13196     13198     13197     13196     13199     13198     13196     13199
     13196     13199     13200     13196     13199     13201     13196     13199     13202
     13200     13199     13201     13200     13199     13202     13201     13199     13202
     13199     13202     13203     13199     13202     13204     13199     13202     13205
     13203     13202     13204     13203     13202     13205     13204     13202     13205
     13202     13205     13206     13202     13205     13207     13202     13205     13208
     13206     13205     13207     13206     13205     13208     13207     13205     13208
     13205     13208     13209     13205     13208     13210     13205     13208     13211
     13209     13208     13210     13209     13208     13211     13210     13208     13211
     13208     13211     13212     13208     13211     13213     13208     13211     13214
     13212     13211     13213     13212     13211     13214     13213     13211     13214
     13211     13214     13215     13211     13214     13216     13211     13214     13217
     13215     13214     13216     13215     13214     13217     13216     13214     13217
     13214     13217     13218     13214     13217     13219     13214     13217     13220
     13218     13217     13219     13218     13217     13220     13219     13217     13220
     13217     13220     13221     13217     13220     13222     13217     13220     13223
     13221     13220     13222     13221     13220     13223     13222     13220     13223
     13220     13223     13224     13220     13223     13225     13220     13223     13226
     13224     13223     13225     13224     13223     13226     13225     13223     13226
     13223     13226     13227     13223     13226     13228     13223     13226     13229
     13227     13226     13228     13227     13226     13229     13228     13226     13229
     13226     13229     13230     13226     13229     13231     13226     13229     13232
     13230     13229     13231     13230     13229     13232     13231     13229     13232
     13229     13232     13233     13229     13232     13234     13229     13232     13235
     13233     13232     13234     13233     13232     13235     13234     13232     13235
     13232     13235     13236     13232     13235     13237     13232     13235     13238
     13236     13235     13237     13236     13235     13238     13237     13235     13238
     13240     13239     13243     13240     13239     13247     13240     13239     13251
     13243     13239     13247     13243     13239     13251     13247     13239     13251
     13239     13240     13241     13239     13240     13242     13239     13240     13255
     13241     13240     13242     13241     13240     13255     13242     13240     13255
     13239     13243     13244     13239     13243     13245     13239     13243     13246
     13244     13243     13245     13244     13243     13246     13245     13243     13246
     13239     13247     13248     13239     13247     13249     13239     13247     13250
     13248     13247     13249     13248     13247     13250     13249     13247     13250
     13239     13251     13252     13239     13251     13253     13239     13251     13254
     13252     13251     13253     13252     13251     13254     13253     13251     13254
     13240     13255     13256     13240     13255     13257     13240     13255     13261
     13256     13255     13257     13256     13255     13261     13257     13255     13261
     13259     13258     13260     13259     13258     13261     13259     13258     13262
     13260     13258     13261     13260     13258     13262     13261     13258     13262
     13255     13261     13258     13258     13262     13263     13262     13263     13264
     13262     13263     13265     13262     13263     13266     13264     13263     13265
     13264     13263     13266     13265     13263     13266     13263     13266     13267
     13263     13266     13268     13263     13266     13274     13267     13266     13268
     13267     13266     13274     13268     13266     13274     13266     13268     13269
     13268     13269     13270     13268     13269     13271     13270     13269     13271
     13269     13271     13272     13269     13271     13273     13269     13271     13283
     13272     13271     13273     13272     13271     13283     13273     13271     13283
     13266     13274     13275     13266     13274     13276     13266     13274     13277
     13275     13274     13276     13275     13274     13277     13276     13274     13277
     13274     13277     13278     13277     13278     13279     13277     13278     13280
     13279     13278     13280     13278     13280     13281     13278     13280     13282
     13278     13280     13330     13281     13280     13282     13281     13280     13330
     13282     13280     13330     13271     13283     13284     13271     13283     13285
     13271     13283     13286     13284     13283     13285     13284     13283     13286
     13285     13283     13286     13283     13286     13287     13283     13286     13288
     13283     13286     13289     13287     13286     13288     13287     13286     13289
     13288     13286     13289     13286     13289     13290     13286     13289     13291
     13286     13289     13292     13290     13289     13291     13290     13289     13292
     13291     13289     13292     13289     13292     13293     13289     13292     13294
     13289     13292     13295     13293     13292     13294     13293     13292     13295
     13294     13292     13295     13292     13295     13296     13292     13295     13297
     13292     13295     13298     13296     13295     13297     13296     13295     13298
     13297     13295     13298     13295     13298     13299     13295     13298     13300
     13295     13298     13301     13299     13298     13300     13299     13298     13301
     13300     13298     13301     13298     13301     13302     13298     13301     13303
     13302     13301     13303     13301     13303     13304     13301     13303     13305
     13304     13303     13305     13303     13305     13306     13303     13305     13307
     13303     13305     13308     13306     13305     13307     13306     13305     13308
     13307     13305     13308     13305     13308     13309     13305     13308     13310
     13305     13308     13311     13309     13308     13310     13309     13308     13311
     13310     13308     13311     13308     13311     13312     13308     13311     13313
     13308     13311     13314     13312     13311     13313     13312     13311     13314
     13313     13311     13314     13311     13314     13315     13311     13314     13316
     13311     13314     13317     13315     13314     13316     13315     13314     13317
     13316     13314     13317     13314     13317     13318     13314     13317     13319
     13314     13317     13320     13318     13317     13319     13318     13317     13320
     13319     13317     13320     13317     13320     13321     13317     13320     13322
     13317     13320     13323     13321     13320     13322     13321     13320     13323
     13322     13320     13323     13320     13323     13324     13320     13323     13325
     13320     13323     13326     13324     13323     13325     13324     13323     13326
     13325     13323     13326     13323     13326     13327     13323     13326     13328
     13323     13326     13329     13327     13326     13328     13327     13326     13329
     13328     13326     13329     13280     13330     13331     13280     13330     13332
     13280     13330     13333     13331     13330     13332     13331     13330     13333
     13332     13330     13333     13330     13333     13334     13330     13333     13335
     13330     13333     13336     13334     13333     13335     13334     13333     13336
     13335     13333     13336     13333     13336     13337     13333     13336     13338
     13333     13336     13339     13337     13336     13338     13337     13336     13339
     13338     13336     13339     13336     13339     13340     13336     13339     13341
     13336     13339     13342     13340     13339     13341     13340     13339     13342
     13341     13339     13342     13339     13342     13343     13339     13342     13344
     13339     13342     13345     13343     13342     13344     13343     13342     13345
     13344     13342     13345     13342     13345     13346     13342     13345     13347
     13342     13345     13348     13346     13345     13347     13346     13345     13348
     13347     13345     13348     13345     13348     13349     13345     13348     13350
     13345     13348     13351     13349     13348     13350     13349     13348     13351
     13350     13348     13351     13348     13351     13352     13348     13351     13353
     13348     13351     13354     13352     13351     13353     13352     13351     13354
     13353     13351     13354     13351     13354     13355     13351     13354     13356
     13351     13354     13357     13355     13354     13356     13355     13354     13357
     13356     13354     13357     13354     13357     13358     13354     13357     13359
     13354     13357     13360     13358     13357     13359     13358     13357     13360
     13359     13357     13360     13357     13360     13361     13357     13360     13362
     13357     13360     13363     13361     13360     13362     13361     13360     13363
     13362     13360     13363     13360     13363     13364     13360     13363     13365
     13360     13363     13366     13364     13363     13365     13364     13363     13366
     13365     13363     13366     13363     13366     13367     13363     13366     13368
     13363     13366     13369     13367     13366     13368     13367     13366     13369
     13368     13366     13369     13366     13369     13370     13366     13369     13371
     13366     13369     13372     13370     13369     13371     13370     13369     13372
     13371     13369     13372     13374     13373     13377     13374     13373     13381
     13374     13373     13385     13377     13373     13381     13377     13373     13385
     13381     13373     13385     13373     13374     13375     13373     13374     13376
     13373     13374     13389     13375     13374     13376     13375     13374     13389
     13376     13374     13389     13373     13377     13378     13373     13377     13379
     13373     13377     13380     13378     13377     13379     13378     13377     13380
     13379     13377     13380     13373     13381     13382     13373     13381     13383
     13373     13381     13384     13382     13381     13383     13382     13381     13384
     13383     13381     13384     13373     13385     13386     13373     13385     13387
     13373     13385     13388     13386     13385     13387     13386     13385     13388
     13387     13385     13388     13374     13389     13390     13374     13389     13391
     13374     13389     13395     13390     13389     13391     13390     13389     13395
     13391     13389     13395     13393     13392     13394     13393     13392     13395
     13393     13392     13396     13394     13392     13395     13394     13392     13396
     13395     13392     13396     13389     13395     13392     13392     13396     13397
     13396     13397     13398     13396     13397     13399     13396     13397     13400
     13398     13397     13399     13398     13397     13400     13399     13397     13400
     13397     13400     13401     13397     13400     13402     13397     13400     13408
     13401     13400     13402     13401     13400     13408     13402     13400     13408
     13400     13402     13403     13402     13403     13404     13402     13403     13405
     13404     13403     13405     13403     13405     13406     13403     13405     13407
     13403     13405     13417     13406     13405     13407     13406     13405     13417
     13407     13405     13417     13400     13408     13409     13400     13408     13410
     13400     13408     13411     13409     13408     13410     13409     13408     13411
     13410     13408     13411     13408     13411     13412     13411     13412     13413
     13411     13412     13414     13413     13412     13414     13412     13414     13415
     13412     13414     13416     13412     13414     13464     13415     13414     13416
     13415     13414     13464     13416     13414     13464     13405     13417     13418
     13405     13417     13419     13405     13417     13420     13418     13417     13419
     13418     13417     13420     13419     13417     13420     13417     13420     13421
     13417     13420     13422     13417     13420     13423     13421     13420     13422
     13421     13420     13423     13422     13420     13423     13420     13423     13424
     13420     13423     13425     13420     13423     13426     13424     13423     13425
     13424     13423     13426     13425     13423     13426     13423     13426     13427
     13423     13426     13428     13423     13426     13429     13427     13426     13428
     13427     13426     13429     13428     13426     13429     13426     13429     13430
     13426     13429     13431     13426     13429     13432     13430     13429     13431
     13430     13429     13432     13431     13429     13432     13429     13432     13433
     13429     13432     13434     13429     13432     13435     13433     13432     13434
     13433     13432     13435     13434     13432     13435     13432     13435     13436
     13432     13435     13437     13436     13435     13437     13435     13437     13438
     13435     13437     13439     13438     13437     13439     13437     13439     13440
     13437     13439     13441     13437     13439     13442     13440     13439     13441
     13440     13439     13442     13441     13439     13442     13439     13442     13443
     13439     13442     13444     13439     13442     13445     13443     13442     13444
     13443     13442     13445     13444     13442     13445     13442     13445     13446
     13442     13445     13447     13442     13445     13448     13446     13445     13447
     13446     13445     13448     13447     13445     13448     13445     13448     13449
     13445     13448     13450     13445     13448     13451     13449     13448     13450
     13449     13448     13451     13450     13448     13451     13448     13451     13452
     13448     13451     13453     13448     13451     13454     13452     13451     13453
     13452     13451     13454     13453     13451     13454     13451     13454     13455
     13451     13454     13456     13451     13454     13457     13455     13454     13456
     13455     13454     13457     13456     13454     13457     13454     13457     13458
     13454     13457     13459     13454     13457     13460     13458     13457     13459
     13458     13457     13460     13459     13457     13460     13457     13460     13461
     13457     13460     13462     13457     13460     13463     13461     13460     13462
     13461     13460     13463     13462     13460     13463     13414     13464     13465
     13414     13464     13466     13414     13464     13467     13465     13464     13466
     13465     13464     13467     13466     13464     13467     13464     13467     13468
     13464     13467     13469     13464     13467     13470     13468     13467     13469
     13468     13467     13470     13469     13467     13470     13467     13470     13471
     13467     13470     13472     13467     13470     13473     13471     13470     13472
     13471     13470     13473     13472     13470     13473     13470     13473     13474
     13470     13473     13475     13470     13473     13476     13474     13473     13475
     13474     13473     13476     13475     13473     13476     13473     13476     13477
     13473     13476     13478     13473     13476     13479     13477     13476     13478
     13477     13476     13479     13478     13476     13479     13476     13479     13480
     13476     13479     13481     13476     13479     13482     13480     13479     13481
     13480     13479     13482     13481     13479     13482     13479     13482     13483
     13479     13482     13484     13479     13482     13485     13483     13482     13484
     13483     13482     13485     13484     13482     13485     13482     13485     13486
     13482     13485     13487     13482     13485     13488     13486     13485     13487
     13486     13485     13488     13487     13485     13488     13485     13488     13489
     13485     13488     13490     13485     13488     13491     13489     13488     13490
     13489     13488     13491     13490     13488     13491     13488     13491     13492
     13488     13491     13493     13488     13491     13494     13492     13491     13493
     13492     13491     13494     13493     13491     13494     13491     13494     13495
     13491     13494     13496     13491     13494     13497     13495     13494     13496
     13495     13494     13497     13496     13494     13497     13494     13497     13498
     13494     13497     13499     13494     13497     13500     13498     13497     13499
     13498     13497     13500     13499     13497     13500     13497     13500     13501
     13497     13500     13502     13497     13500     13503     13501     13500     13502
     13501     13500     13503     13502     13500     13503     13500     13503     13504
     13500     13503     13505     13500     13503     13506     13504     13503     13505
     13504     13503     13506     13505     13503     13506     13508     13507     13511
     13508     13507     13515     13508     13507     13519     13511     13507     13515
     13511     13507     13519     13515     13507     13519     13507     13508     13509
     13507     13508     13510     13507     13508     13523     13509     13508     13510
     13509     13508     13523     13510     13508     13523     13507     13511     13512
     13507     13511     13513     13507     13511     13514     13512     13511     13513
     13512     13511     13514     13513     13511     13514     13507     13515     13516
     13507     13515     13517     13507     13515     13518     13516     13515     13517
     13516     13515     13518     13517     13515     13518     13507     13519     13520
     13507     13519     13521     13507     13519     13522     13520     13519     13521
     13520     13519     13522     13521     13519     13522     13508     13523     13524
     13508     13523     13525     13508     13523     13529     13524     13523     13525
     13524     13523     13529     13525     13523     13529     13527     13526     13528
     13527     13526     13529     13527     13526     13530     13528     13526     13529
     13528     13526     13530     13529     13526     13530     13523     13529     13526
     13526     13530     13531     13530     13531     13532     13530     13531     13533
     13530     13531     13534     13532     13531     13533     13532     13531     13534
     13533     13531     13534     13531     13534     13535     13531     13534     13536
     13531     13534     13542     13535     13534     13536     13535     13534     13542
     13536     13534     13542     13534     13536     13537     13536     13537     13538
     13536     13537     13539     13538     13537     13539     13537     13539     13540
     13537     13539     13541     13537     13539     13551     13540     13539     13541
     13540     13539     13551     13541     13539     13551     13534     13542     13543
     13534     13542     13544     13534     13542     13545     13543     13542     13544
     13543     13542     13545     13544     13542     13545     13542     13545     13546
     13545     13546     13547     13545     13546     13548     13547     13546     13548
     13546     13548     13549     13546     13548     13550     13546     13548     13598
     13549     13548     13550     13549     13548     13598     13550     13548     13598
     13539     13551     13552     13539     13551     13553     13539     13551     13554
     13552     13551     13553     13552     13551     13554     13553     13551     13554
     13551     13554     13555     13551     13554     13556     13551     13554     13557
     13555     13554     13556     13555     13554     13557     13556     13554     13557
     13554     13557     13558     13554     13557     13559     13554     13557     13560
     13558     13557     13559     13558     13557     13560     13559     13557     13560
     13557     13560     13561     13557     13560     13562     13557     13560     13563
     13561     13560     13562     13561     13560     13563     13562     13560     13563
     13560     13563     13564     13560     13563     13565     13560     13563     13566
     13564     13563     13565     13564     13563     13566     13565     13563     13566
     13563     13566     13567     13563     13566     13568     13563     13566     13569
     13567     13566     13568     13567     13566     13569     13568     13566     13569
     13566     13569     13570     13566     13569     13571     13570     13569     13571
     13569     13571     13572     13569     13571     13573     13572     13571     13573
     13571     13573     13574     13571     13573     13575     13571     13573     13576
     13574     13573     13575     13574     13573     13576     13575     13573     13576
     13573     13576     13577     13573     13576     13578     13573     13576     13579
     13577     13576     13578     13577     13576     13579     13578     13576     13579
     13576     13579     13580     13576     13579     13581     13576     13579     13582
     13580     13579     13581     13580     13579     13582     13581     13579     13582
     13579     13582     13583     13579     13582     13584     13579     13582     13585
     13583     13582     13584     13583     13582     13585     13584     13582     13585
     13582     13585     13586     13582     13585     13587     13582     13585     13588
     13586     13585     13587     13586     13585     13588     13587     13585     13588
     13585     13588     13589     13585     13588     13590     13585     13588     13591
     13589     13588     13590     13589     13588     13591     13590     13588     13591
     13588     13591     13592     13588     13591     13593     13588     13591     13594
     13592     13591     13593     13592     13591     13594     13593     13591     13594
     13591     13594     13595     13591     13594     13596     13591     13594     13597
     13595     13594     13596     13595     13594     13597     13596     13594     13597
     13548     13598     13599     13548     13598     13600     13548     13598     13601
     13599     13598     13600     13599     13598     13601     13600     13598     13601
     13598     13601     13602     13598     13601     13603     13598     13601     13604
     13602     13601     13603     13602     13601     13604     13603     13601     13604
     13601     13604     13605     13601     13604     13606     13601     13604     13607
     13605     13604     13606     13605     13604     13607     13606     13604     13607
     13604     13607     13608     13604     13607     13609     13604     13607     13610
     13608     13607     13609     13608     13607     13610     13609     13607     13610
     13607     13610     13611     13607     13610     13612     13607     13610     13613
     13611     13610     13612     13611     13610     13613     13612     13610     13613
     13610     13613     13614     13610     13613     13615     13610     13613     13616
     13614     13613     13615     13614     13613     13616     13615     13613     13616
     13613     13616     13617     13613     13616     13618     13613     13616     13619
     13617     13616     13618     13617     13616     13619     13618     13616     13619
     13616     13619     13620     13616     13619     13621     13616     13619     13622
     13620     13619     13621     13620     13619     13622     13621     13619     13622
     13619     13622     13623     13619     13622     13624     13619     13622     13625
     13623     13622     13624     13623     13622     13625     13624     13622     13625
     13622     13625     13626     13622     13625     13627     13622     13625     13628
     13626     13625     13627     13626     13625     13628     13627     13625     13628
     13625     13628     13629     13625     13628     13630     13625     13628     13631
     13629     13628     13630     13629     13628     13631     13630     13628     13631
     13628     13631     13632     13628     13631     13633     13628     13631     13634
     13632     13631     13633     13632     13631     13634     13633     13631     13634
     13631     13634     13635     13631     13634     13636     13631     13634     13637
     13635     13634     13636     13635     13634     13637     13636     13634     13637
     13634     13637     13638     13634     13637     13639     13634     13637     13640
     13638     13637     13639     13638     13637     13640     13639     13637     13640
     13642     13641     13643     13642     13641     13644     13642     13641     13645
     13643     13641     13644     13643     13641     13645     13644     13641     13645
     13641     13645     13646     13641     13645     13647     13641     13645     13650
     13646     13645     13647     13646     13645     13650     13647     13645     13650
     13645     13647     13648     13645     13647     13649     13648     13647     13649
     13645     13650     13651     13645     13650     13652     13645     13650     13656
     13651     13650     13652     13651     13650     13656     13652     13650     13656
     13654     13653     13655     13654     13653     13656     13654     13653     13657
     13655     13653     13656     13655     13653     13657     13656     13653     13657
     13650     13656     13653     13653     13657     13658     13657     13658     13659
     13657     13658     13660     13657     13658     13661     13659     13658     13660
     13659     13658     13661     13660     13658     13661     13658     13661     13662
     13658     13661     13663     13658     13661     13669     13662     13661     13663
     13662     13661     13669     13663     13661     13669     13661     13663     13664
     13663     13664     13665     13663     13664     13666     13665     13664     13666
     13664     13666     13667     13664     13666     13668     13664     13666     13678
     13667     13666     13668     13667     13666     13678     13668     13666     13678
     13661     13669     13670     13661     13669     13671     13661     13669     13672
     13670     13669     13671     13670     13669     13672     13671     13669     13672
     13669     13672     13673     13672     13673     13674     13672     13673     13675
     13674     13673     13675     13673     13675     13676     13673     13675     13677
     13673     13675     13725     13676     13675     13677     13676     13675     13725
     13677     13675     13725     13666     13678     13679     13666     13678     13680
     13666     13678     13681     13679     13678     13680     13679     13678     13681
     13680     13678     13681     13678     13681     13682     13678     13681     13683
     13678     13681     13684     13682     13681     13683     13682     13681     13684
     13683     13681     13684     13681     13684     13685     13681     13684     13686
     13681     13684     13687     13685     13684     13686     13685     13684     13687
     13686     13684     13687     13684     13687     13688     13684     13687     13689
     13684     13687     13690     13688     13687     13689     13688     13687     13690
     13689     13687     13690     13687     13690     13691     13687     13690     13692
     13687     13690     13693     13691     13690     13692     13691     13690     13693
     13692     13690     13693     13690     13693     13694     13690     13693     13695
     13690     13693     13696     13694     13693     13695     13694     13693     13696
     13695     13693     13696     13693     13696     13697     13693     13696     13698
     13697     13696     13698     13696     13698     13699     13696     13698     13700
     13699     13698     13700     13698     13700     13701     13698     13700     13702
     13698     13700     13703     13701     13700     13702     13701     13700     13703
     13702     13700     13703     13700     13703     13704     13700     13703     13705
     13700     13703     13706     13704     13703     13705     13704     13703     13706
     13705     13703     13706     13703     13706     13707     13703     13706     13708
     13703     13706     13709     13707     13706     13708     13707     13706     13709
     13708     13706     13709     13706     13709     13710     13706     13709     13711
     13706     13709     13712     13710     13709     13711     13710     13709     13712
     13711     13709     13712     13709     13712     13713     13709     13712     13714
     13709     13712     13715     13713     13712     13714     13713     13712     13715
     13714     13712     13715     13712     13715     13716     13712     13715     13717
     13712     13715     13718     13716     13715     13717     13716     13715     13718
     13717     13715     13718     13715     13718     13719     13715     13718     13720
     13715     13718     13721     13719     13718     13720     13719     13718     13721
     13720     13718     13721     13718     13721     13722     13718     13721     13723
     13718     13721     13724     13722     13721     13723     13722     13721     13724
     13723     13721     13724     13675     13725     13726     13675     13725     13727
     13675     13725     13728     13726     13725     13727     13726     13725     13728
     13727     13725     13728     13725     13728     13729     13725     13728     13730
     13725     13728     13731     13729     13728     13730     13729     13728     13731
     13730     13728     13731     13728     13731     13732     13728     13731     13733
     13728     13731     13734     13732     13731     13733     13732     13731     13734
     13733     13731     13734     13731     13734     13735     13731     13734     13736
     13731     13734     13737     13735     13734     13736     13735     13734     13737
     13736     13734     13737     13734     13737     13738     13734     13737     13739
     13734     13737     13740     13738     13737     13739     13738     13737     13740
     13739     13737     13740     13737     13740     13741     13737     13740     13742
     13737     13740     13743     13741     13740     13742     13741     13740     13743
     13742     13740     13743     13740     13743     13744     13740     13743     13745
     13740     13743     13746     13744     13743     13745     13744     13743     13746
     13745     13743     13746     13743     13746     13747     13743     13746     13748
     13743     13746     13749     13747     13746     13748     13747     13746     13749
     13748     13746     13749     13746     13749     13750     13746     13749     13751
     13746     13749     13752     13750     13749     13751     13750     13749     13752
     13751     13749     13752     13749     13752     13753     13749     13752     13754
     13749     13752     13755     13753     13752     13754     13753     13752     13755
     13754     13752     13755     13752     13755     13756     13752     13755     13757
     13752     13755     13758     13756     13755     13757     13756     13755     13758
     13757     13755     13758     13755     13758     13759     13755     13758     13760
     13755     13758     13761     13759     13758     13760     13759     13758     13761
     13760     13758     13761     13758     13761     13762     13758     13761     13763
     13758     13761     13764     13762     13761     13763     13762     13761     13764
     13763     13761     13764     13761     13764     13765     13761     13764     13766
     13761     13764     13767     13765     13764     13766     13765     13764     13767
     13766     13764     13767     13769     13768     13772     13769     13768     13776
     13769     13768     13780     13772     13768     13776     13772     13768     13780
     13776     13768     13780     13768     13769     13770     13768     13769     13771
     13768     13769     13784     13770     13769     13771     13770     13769     13784
     13771     13769     13784     13768     13772     13773     13768     13772     13774
     13768     13772     13775     13773     13772     13774     13773     13772     13775
     13774     13772     13775     13768     13776     13777     13768     13776     13778
     13768     13776     13779     13777     13776     13778     13777     13776     13779
     13778     13776     13779     13768     13780     13781     13768     13780     13782
     13768     13780     13783     13781     13780     13782     13781     13780     13783
     13782     13780     13783     13769     13784     13785     13769     13784     13786
     13769     13784     13790     13785     13784     13786     13785     13784     13790
     13786     13784     13790     13788     13787     13789     13788     13787     13790
     13788     13787     13791     13789     13787     13790     13789     13787     13791
     13790     13787     13791     13784     13790     13787     13787     13791     13792
     13791     13792     13793     13791     13792     13794     13791     13792     13795
     13793     13792     13794     13793     13792     13795     13794     13792     13795
     13792     13795     13796     13792     13795     13797     13792     13795     13803
     13796     13795     13797     13796     13795     13803     13797     13795     13803
     13795     13797     13798     13797     13798     13799     13797     13798     13800
     13799     13798     13800     13798     13800     13801     13798     13800     13802
     13798     13800     13812     13801     13800     13802     13801     13800     13812
     13802     13800     13812     13795     13803     13804     13795     13803     13805
     13795     13803     13806     13804     13803     13805     13804     13803     13806
     13805     13803     13806     13803     13806     13807     13806     13807     13808
     13806     13807     13809     13808     13807     13809     13807     13809     13810
     13807     13809     13811     13807     13809     13859     13810     13809     13811
     13810     13809     13859     13811     13809     13859     13800     13812     13813
     13800     13812     13814     13800     13812     13815     13813     13812     13814
     13813     13812     13815     13814     13812     13815     13812     13815     13816
     13812     13815     13817     13812     13815     13818     13816     13815     13817
     13816     13815     13818     13817     13815     13818     13815     13818     13819
     13815     13818     13820     13815     13818     13821     13819     13818     13820
     13819     13818     13821     13820     13818     13821     13818     13821     13822
     13818     13821     13823     13818     13821     13824     13822     13821     13823
     13822     13821     13824     13823     13821     13824     13821     13824     13825
     13821     13824     13826     13821     13824     13827     13825     13824     13826
     13825     13824     13827     13826     13824     13827     13824     13827     13828
     13824     13827     13829     13824     13827     13830     13828     13827     13829
     13828     13827     13830     13829     13827     13830     13827     13830     13831
     13827     13830     13832     13831     13830     13832     13830     13832     13833
     13830     13832     13834     13833     13832     13834     13832     13834     13835
     13832     13834     13836     13832     13834     13837     13835     13834     13836
     13835     13834     13837     13836     13834     13837     13834     13837     13838
     13834     13837     13839     13834     13837     13840     13838     13837     13839
     13838     13837     13840     13839     13837     13840     13837     13840     13841
     13837     13840     13842     13837     13840     13843     13841     13840     13842
     13841     13840     13843     13842     13840     13843     13840     13843     13844
     13840     13843     13845     13840     13843     13846     13844     13843     13845
     13844     13843     13846     13845     13843     13846     13843     13846     13847
     13843     13846     13848     13843     13846     13849     13847     13846     13848
     13847     13846     13849     13848     13846     13849     13846     13849     13850
     13846     13849     13851     13846     13849     13852     13850     13849     13851
     13850     13849     13852     13851     13849     13852     13849     13852     13853
     13849     13852     13854     13849     13852     13855     13853     13852     13854
     13853     13852     13855     13854     13852     13855     13852     13855     13856
     13852     13855     13857     13852     13855     13858     13856     13855     13857
     13856     13855     13858     13857     13855     13858     13809     13859     13860
     13809     13859     13861     13809     13859     13862     13860     13859     13861
     13860     13859     13862     13861     13859     13862     13859     13862     13863
     13859     13862     13864     13859     13862     13865     13863     13862     13864
     13863     13862     13865     13864     13862     13865     13862     13865     13866
     13862     13865     13867     13862     13865     13868     13866     13865     13867
     13866     13865     13868     13867     13865     13868     13865     13868     13869
     13865     13868     13870     13865     13868     13871     13869     13868     13870
     13869     13868     13871     13870     13868     13871     13868     13871     13872
     13868     13871     13873     13868     13871     13874     13872     13871     13873
     13872     13871     13874     13873     13871     13874     13871     13874     13875
     13871     13874     13876     13871     13874     13877     13875     13874     13876
     13875     13874     13877     13876     13874     13877     13874     13877     13878
     13874     13877     13879     13874     13877     13880     13878     13877     13879
     13878     13877     13880     13879     13877     13880     13877     13880     13881
     13877     13880     13882     13877     13880     13883     13881     13880     13882
     13881     13880     13883     13882     13880     13883     13880     13883     13884
     13880     13883     13885     13880     13883     13886     13884     13883     13885
     13884     13883     13886     13885     13883     13886     13883     13886     13887
     13883     13886     13888     13883     13886     13889     13887     13886     13888
     13887     13886     13889     13888     13886     13889     13886     13889     13890
     13886     13889     13891     13886     13889     13892     13890     13889     13891
     13890     13889     13892     13891     13889     13892     13889     13892     13893
     13889     13892     13894     13889     13892     13895     13893     13892     13894
     13893     13892     13895     13894     13892     13895     13892     13895     13896
     13892     13895     13897     13892     13895     13898     13896     13895     13897
     13896     13895     13898     13897     13895     13898     13895     13898     13899
     13895     13898     13900     13895     13898     13901     13899     13898     13900
     13899     13898     13901     13900     13898     13901     13903     13902     13904
     13903     13902     13905     13903     13902     13906     13904     13902     13905
     13904     13902     13906     13905     13902     13906     13902     13906     13907
     13902     13906     13908     13902     13906     13911     13907     13906     13908
     13907     13906     13911     13908     13906     13911     13906     13908     13909
     13906     13908     13910     13909     13908     13910     13906     13911     13912
     13906     13911     13913     13906     13911     13917     13912     13911     13913
     13912     13911     13917     13913     13911     13917     13915     13914     13916
     13915     13914     13917     13915     13914     13918     13916     13914     13917
     13916     13914     13918     13917     13914     13918     13911     13917     13914
     13914     13918     13919     13918     13919     13920     13918     13919     13921
     13918     13919     13922     13920     13919     13921     13920     13919     13922
     13921     13919     13922     13919     13922     13923     13919     13922     13924
     13919     13922     13930     13923     13922     13924     13923     13922     13930
     13924     13922     13930     13922     13924     13925     13924     13925     13926
     13924     13925     13927     13926     13925     13927     13925     13927     13928
     13925     13927     13929     13925     13927     13939     13928     13927     13929
     13928     13927     13939     13929     13927     13939     13922     13930     13931
     13922     13930     13932     13922     13930     13933     13931     13930     13932
     13931     13930     13933     13932     13930     13933     13930     13933     13934
     13933     13934     13935     13933     13934     13936     13935     13934     13936
     13934     13936     13937     13934     13936     13938     13934     13936     13986
     13937     13936     13938     13937     13936     13986     13938     13936     13986
     13927     13939     13940     13927     13939     13941     13927     13939     13942
     13940     13939     13941     13940     13939     13942     13941     13939     13942
     13939     13942     13943     13939     13942     13944     13939     13942     13945
     13943     13942     13944     13943     13942     13945     13944     13942     13945
     13942     13945     13946     13942     13945     13947     13942     13945     13948
     13946     13945     13947     13946     13945     13948     13947     13945     13948
     13945     13948     13949     13945     13948     13950     13945     13948     13951
     13949     13948     13950     13949     13948     13951     13950     13948     13951
     13948     13951     13952     13948     13951     13953     13948     13951     13954
     13952     13951     13953     13952     13951     13954     13953     13951     13954
     13951     13954     13955     13951     13954     13956     13951     13954     13957
     13955     13954     13956     13955     13954     13957     13956     13954     13957
     13954     13957     13958     13954     13957     13959     13958     13957     13959
     13957     13959     13960     13957     13959     13961     13960     13959     13961
     13959     13961     13962     13959     13961     13963     13959     13961     13964
     13962     13961     13963     13962     13961     13964     13963     13961     13964
     13961     13964     13965     13961     13964     13966     13961     13964     13967
     13965     13964     13966     13965     13964     13967     13966     13964     13967
     13964     13967     13968     13964     13967     13969     13964     13967     13970
     13968     13967     13969     13968     13967     13970     13969     13967     13970
     13967     13970     13971     13967     13970     13972     13967     13970     13973
     13971     13970     13972     13971     13970     13973     13972     13970     13973
     13970     13973     13974     13970     13973     13975     13970     13973     13976
     13974     13973     13975     13974     13973     13976     13975     13973     13976
     13973     13976     13977     13973     13976     13978     13973     13976     13979
     13977     13976     13978     13977     13976     13979     13978     13976     13979
     13976     13979     13980     13976     13979     13981     13976     13979     13982
     13980     13979     13981     13980     13979     13982     13981     13979     13982
     13979     13982     13983     13979     13982     13984     13979     13982     13985
     13983     13982     13984     13983     13982     13985     13984     13982     13985
     13936     13986     13987     13936     13986     13988     13936     13986     13989
     13987     13986     13988     13987     13986     13989     13988     13986     13989
     13986     13989     13990     13986     13989     13991     13986     13989     13992
     13990     13989     13991     13990     13989     13992     13991     13989     13992
     13989     13992     13993     13989     13992     13994     13989     13992     13995
     13993     13992     13994     13993     13992     13995     13994     13992     13995
     13992     13995     13996     13992     13995     13997     13992     13995     13998
     13996     13995     13997     13996     13995     13998     13997     13995     13998
     13995     13998     13999     13995     13998     14000     13995     13998     14001
     13999     13998     14000     13999     13998     14001     14000     13998     14001
     13998     14001     14002     13998     14001     14003     13998     14001     14004
     14002     14001     14003     14002     14001     14004     14003     14001     14004
     14001     14004     14005     14001     14004     14006     14001     14004     14007
     14005     14004     14006     14005     14004     14007     14006     14004     14007
     14004     14007     14008     14004     14007     14009     14004     14007     14010
     14008     14007     14009     14008     14007     14010     14009     14007     14010
     14007     14010     14011     14007     14010     14012     14007     14010     14013
     14011     14010     14012     14011     14010     14013     14012     14010     14013
     14010     14013     14014     14010     14013     14015     14010     14013     14016
     14014     14013     14015     14014     14013     14016     14015     14013     14016
     14013     14016     14017     14013     14016     14018     14013     14016     14019
     14017     14016     14018     14017     14016     14019     14018     14016     14019
     14016     14019     14020     14016     14019     14021     14016     14019     14022
     14020     14019     14021     14020     14019     14022     14021     14019     14022
     14019     14022     14023     14019     14022     14024     14019     14022     14025
     14023     14022     14024     14023     14022     14025     14024     14022     14025
     14022     14025     14026     14022     14025     14027     14022     14025     14028
     14026     14025     14027     14026     14025     14028     14027     14025     14028
     14030     14029     14033     14030     14029     14037     14030     14029     14041
     14033     14029     14037     14033     14029     14041     14037     14029     14041
     14029     14030     14031     14029     14030     14032     14029     14030     14045
     14031     14030     14032     14031     14030     14045     14032     14030     14045
     14029     14033     14034     14029     14033     14035     14029     14033     14036
     14034     14033     14035     14034     14033     14036     14035     14033     14036
     14029     14037     14038     14029     14037     14039     14029     14037     14040
     14038     14037     14039     14038     14037     14040     14039     14037     14040
     14029     14041     14042     14029     14041     14043     14029     14041     14044
     14042     14041     14043     14042     14041     14044     14043     14041     14044
     14030     14045     14046     14030     14045     14047     14030     14045     14051
     14046     14045     14047     14046     14045     14051     14047     14045     14051
     14049     14048     14050     14049     14048     14051     14049     14048     14052
     14050     14048     14051     14050     14048     14052     14051     14048     14052
     14045     14051     14048     14048     14052     14053     14052     14053     14054
     14052     14053     14055     14052     14053     14056     14054     14053     14055
     14054     14053     14056     14055     14053     14056     14053     14056     14057
     14053     14056     14058     14053     14056     14064     14057     14056     14058
     14057     14056     14064     14058     14056     14064     14056     14058     14059
     14058     14059     14060     14058     14059     14061     14060     14059     14061
     14059     14061     14062     14059     14061     14063     14059     14061     14073
     14062     14061     14063     14062     14061     14073     14063     14061     14073
     14056     14064     14065     14056     14064     14066     14056     14064     14067
     14065     14064     14066     14065     14064     14067     14066     14064     14067
     14064     14067     14068     14067     14068     14069     14067     14068     14070
     14069     14068     14070     14068     14070     14071     14068     14070     14072
     14068     14070     14120     14071     14070     14072     14071     14070     14120
     14072     14070     14120     14061     14073     14074     14061     14073     14075
     14061     14073     14076     14074     14073     14075     14074     14073     14076
     14075     14073     14076     14073     14076     14077     14073     14076     14078
     14073     14076     14079     14077     14076     14078     14077     14076     14079
     14078     14076     14079     14076     14079     14080     14076     14079     14081
     14076     14079     14082     14080     14079     14081     14080     14079     14082
     14081     14079     14082     14079     14082     14083     14079     14082     14084
     14079     14082     14085     14083     14082     14084     14083     14082     14085
     14084     14082     14085     14082     14085     14086     14082     14085     14087
     14082     14085     14088     14086     14085     14087     14086     14085     14088
     14087     14085     14088     14085     14088     14089     14085     14088     14090
     14085     14088     14091     14089     14088     14090     14089     14088     14091
     14090     14088     14091     14088     14091     14092     14088     14091     14093
     14092     14091     14093     14091     14093     14094     14091     14093     14095
     14094     14093     14095     14093     14095     14096     14093     14095     14097
     14093     14095     14098     14096     14095     14097     14096     14095     14098
     14097     14095     14098     14095     14098     14099     14095     14098     14100
     14095     14098     14101     14099     14098     14100     14099     14098     14101
     14100     14098     14101     14098     14101     14102     14098     14101     14103
     14098     14101     14104     14102     14101     14103     14102     14101     14104
     14103     14101     14104     14101     14104     14105     14101     14104     14106
     14101     14104     14107     14105     14104     14106     14105     14104     14107
     14106     14104     14107     14104     14107     14108     14104     14107     14109
     14104     14107     14110     14108     14107     14109     14108     14107     14110
     14109     14107     14110     14107     14110     14111     14107     14110     14112
     14107     14110     14113     14111     14110     14112     14111     14110     14113
     14112     14110     14113     14110     14113     14114     14110     14113     14115
     14110     14113     14116     14114     14113     14115     14114     14113     14116
     14115     14113     14116     14113     14116     14117     14113     14116     14118
     14113     14116     14119     14117     14116     14118     14117     14116     14119
     14118     14116     14119     14070     14120     14121     14070     14120     14122
     14070     14120     14123     14121     14120     14122     14121     14120     14123
     14122     14120     14123     14120     14123     14124     14120     14123     14125
     14120     14123     14126     14124     14123     14125     14124     14123     14126
     14125     14123     14126     14123     14126     14127     14123     14126     14128
     14123     14126     14129     14127     14126     14128     14127     14126     14129
     14128     14126     14129     14126     14129     14130     14126     14129     14131
     14126     14129     14132     14130     14129     14131     14130     14129     14132
     14131     14129     14132     14129     14132     14133     14129     14132     14134
     14129     14132     14135     14133     14132     14134     14133     14132     14135
     14134     14132     14135     14132     14135     14136     14132     14135     14137
     14132     14135     14138     14136     14135     14137     14136     14135     14138
     14137     14135     14138     14135     14138     14139     14135     14138     14140
     14135     14138     14141     14139     14138     14140     14139     14138     14141
     14140     14138     14141     14138     14141     14142     14138     14141     14143
     14138     14141     14144     14142     14141     14143     14142     14141     14144
     14143     14141     14144     14141     14144     14145     14141     14144     14146
     14141     14144     14147     14145     14144     14146     14145     14144     14147
     14146     14144     14147     14144     14147     14148     14144     14147     14149
     14144     14147     14150     14148     14147     14149     14148     14147     14150
     14149     14147     14150     14147     14150     14151     14147     14150     14152
     14147     14150     14153     14151     14150     14152     14151     14150     14153
     14152     14150     14153     14150     14153     14154     14150     14153     14155
     14150     14153     14156     14154     14153     14155     14154     14153     14156
     14155     14153     14156     14153     14156     14157     14153     14156     14158
     14153     14156     14159     14157     14156     14158     14157     14156     14159
     14158     14156     14159     14156     14159     14160     14156     14159     14161
     14156     14159     14162     14160     14159     14161     14160     14159     14162
     14161     14159     14162     14164     14163     14167     14164     14163     14171
     14164     14163     14175     14167     14163     14171     14167     14163     14175
     14171     14163     14175     14163     14164     14165     14163     14164     14166
     14163     14164     14179     14165     14164     14166     14165     14164     14179
     14166     14164     14179     14163     14167     14168     14163     14167     14169
     14163     14167     14170     14168     14167     14169     14168     14167     14170
     14169     14167     14170     14163     14171     14172     14163     14171     14173
     14163     14171     14174     14172     14171     14173     14172     14171     14174
     14173     14171     14174     14163     14175     14176     14163     14175     14177
     14163     14175     14178     14176     14175     14177     14176     14175     14178
     14177     14175     14178     14164     14179     14180     14164     14179     14181
     14164     14179     14185     14180     14179     14181     14180     14179     14185
     14181     14179     14185     14183     14182     14184     14183     14182     14185
     14183     14182     14186     14184     14182     14185     14184     14182     14186
     14185     14182     14186     14179     14185     14182     14182     14186     14187
     14186     14187     14188     14186     14187     14189     14186     14187     14190
     14188     14187     14189     14188     14187     14190     14189     14187     14190
     14187     14190     14191     14187     14190     14192     14187     14190     14198
     14191     14190     14192     14191     14190     14198     14192     14190     14198
     14190     14192     14193     14192     14193     14194     14192     14193     14195
     14194     14193     14195     14193     14195     14196     14193     14195     14197
     14193     14195     14207     14196     14195     14197     14196     14195     14207
     14197     14195     14207     14190     14198     14199     14190     14198     14200
     14190     14198     14201     14199     14198     14200     14199     14198     14201
     14200     14198     14201     14198     14201     14202     14201     14202     14203
     14201     14202     14204     14203     14202     14204     14202     14204     14205
     14202     14204     14206     14202     14204     14254     14205     14204     14206
     14205     14204     14254     14206     14204     14254     14195     14207     14208
     14195     14207     14209     14195     14207     14210     14208     14207     14209
     14208     14207     14210     14209     14207     14210     14207     14210     14211
     14207     14210     14212     14207     14210     14213     14211     14210     14212
     14211     14210     14213     14212     14210     14213     14210     14213     14214
     14210     14213     14215     14210     14213     14216     14214     14213     14215
     14214     14213     14216     14215     14213     14216     14213     14216     14217
     14213     14216     14218     14213     14216     14219     14217     14216     14218
     14217     14216     14219     14218     14216     14219     14216     14219     14220
     14216     14219     14221     14216     14219     14222     14220     14219     14221
     14220     14219     14222     14221     14219     14222     14219     14222     14223
     14219     14222     14224     14219     14222     14225     14223     14222     14224
     14223     14222     14225     14224     14222     14225     14222     14225     14226
     14222     14225     14227     14226     14225     14227     14225     14227     14228
     14225     14227     14229     14228     14227     14229     14227     14229     14230
     14227     14229     14231     14227     14229     14232     14230     14229     14231
     14230     14229     14232     14231     14229     14232     14229     14232     14233
     14229     14232     14234     14229     14232     14235     14233     14232     14234
     14233     14232     14235     14234     14232     14235     14232     14235     14236
     14232     14235     14237     14232     14235     14238     14236     14235     14237
     14236     14235     14238     14237     14235     14238     14235     14238     14239
     14235     14238     14240     14235     14238     14241     14239     14238     14240
     14239     14238     14241     14240     14238     14241     14238     14241     14242
     14238     14241     14243     14238     14241     14244     14242     14241     14243
     14242     14241     14244     14243     14241     14244     14241     14244     14245
     14241     14244     14246     14241     14244     14247     14245     14244     14246
     14245     14244     14247     14246     14244     14247     14244     14247     14248
     14244     14247     14249     14244     14247     14250     14248     14247     14249
     14248     14247     14250     14249     14247     14250     14247     14250     14251
     14247     14250     14252     14247     14250     14253     14251     14250     14252
     14251     14250     14253     14252     14250     14253     14204     14254     14255
     14204     14254     14256     14204     14254     14257     14255     14254     14256
     14255     14254     14257     14256     14254     14257     14254     14257     14258
     14254     14257     14259     14254     14257     14260     14258     14257     14259
     14258     14257     14260     14259     14257     14260     14257     14260     14261
     14257     14260     14262     14257     14260     14263     14261     14260     14262
     14261     14260     14263     14262     14260     14263     14260     14263     14264
     14260     14263     14265     14260     14263     14266     14264     14263     14265
     14264     14263     14266     14265     14263     14266     14263     14266     14267
     14263     14266     14268     14263     14266     14269     14267     14266     14268
     14267     14266     14269     14268     14266     14269     14266     14269     14270
     14266     14269     14271     14266     14269     14272     14270     14269     14271
     14270     14269     14272     14271     14269     14272     14269     14272     14273
     14269     14272     14274     14269     14272     14275     14273     14272     14274
     14273     14272     14275     14274     14272     14275     14272     14275     14276
     14272     14275     14277     14272     14275     14278     14276     14275     14277
     14276     14275     14278     14277     14275     14278     14275     14278     14279
     14275     14278     14280     14275     14278     14281     14279     14278     14280
     14279     14278     14281     14280     14278     14281     14278     14281     14282
     14278     14281     14283     14278     14281     14284     14282     14281     14283
     14282     14281     14284     14283     14281     14284     14281     14284     14285
     14281     14284     14286     14281     14284     14287     14285     14284     14286
     14285     14284     14287     14286     14284     14287     14284     14287     14288
     14284     14287     14289     14284     14287     14290     14288     14287     14289
     14288     14287     14290     14289     14287     14290     14287     14290     14291
     14287     14290     14292     14287     14290     14293     14291     14290     14292
     14291     14290     14293     14292     14290     14293     14290     14293     14294
     14290     14293     14295     14290     14293     14296     14294     14293     14295
     14294     14293     14296     14295     14293     14296     14298     14297     14299
     14298     14297     14300     14298     14297     14301     14299     14297     14300
     14299     14297     14301     14300     14297     14301     14297     14301     14302
     14297     14301     14303     14297     14301     14306     14302     14301     14303
     14302     14301     14306     14303     14301     14306     14301     14303     14304
     14301     14303     14305     14304     14303     14305     14301     14306     14307
     14301     14306     14308     14301     14306     14312     14307     14306     14308
     14307     14306     14312     14308     14306     14312     14310     14309     14311
     14310     14309     14312     14310     14309     14313     14311     14309     14312
     14311     14309     14313     14312     14309     14313     14306     14312     14309
     14309     14313     14314     14313     14314     14315     14313     14314     14316
     14313     14314     14317     14315     14314     14316     14315     14314     14317
     14316     14314     14317     14314     14317     14318     14314     14317     14319
     14314     14317     14325     14318     14317     14319     14318     14317     14325
     14319     14317     14325     14317     14319     14320     14319     14320     14321
     14319     14320     14322     14321     14320     14322     14320     14322     14323
     14320     14322     14324     14320     14322     14334     14323     14322     14324
     14323     14322     14334     14324     14322     14334     14317     14325     14326
     14317     14325     14327     14317     14325     14328     14326     14325     14327
     14326     14325     14328     14327     14325     14328     14325     14328     14329
     14328     14329     14330     14328     14329     14331     14330     14329     14331
     14329     14331     14332     14329     14331     14333     14329     14331     14381
     14332     14331     14333     14332     14331     14381     14333     14331     14381
     14322     14334     14335     14322     14334     14336     14322     14334     14337
     14335     14334     14336     14335     14334     14337     14336     14334     14337
     14334     14337     14338     14334     14337     14339     14334     14337     14340
     14338     14337     14339     14338     14337     14340     14339     14337     14340
     14337     14340     14341     14337     14340     14342     14337     14340     14343
     14341     14340     14342     14341     14340     14343     14342     14340     14343
     14340     14343     14344     14340     14343     14345     14340     14343     14346
     14344     14343     14345     14344     14343     14346     14345     14343     14346
     14343     14346     14347     14343     14346     14348     14343     14346     14349
     14347     14346     14348     14347     14346     14349     14348     14346     14349
     14346     14349     14350     14346     14349     14351     14346     14349     14352
     14350     14349     14351     14350     14349     14352     14351     14349     14352
     14349     14352     14353     14349     14352     14354     14353     14352     14354
     14352     14354     14355     14352     14354     14356     14355     14354     14356
     14354     14356     14357     14354     14356     14358     14354     14356     14359
     14357     14356     14358     14357     14356     14359     14358     14356     14359
     14356     14359     14360     14356     14359     14361     14356     14359     14362
     14360     14359     14361     14360     14359     14362     14361     14359     14362
     14359     14362     14363     14359     14362     14364     14359     14362     14365
     14363     14362     14364     14363     14362     14365     14364     14362     14365
     14362     14365     14366     14362     14365     14367     14362     14365     14368
     14366     14365     14367     14366     14365     14368     14367     14365     14368
     14365     14368     14369     14365     14368     14370     14365     14368     14371
     14369     14368     14370     14369     14368     14371     14370     14368     14371
     14368     14371     14372     14368     14371     14373     14368     14371     14374
     14372     14371     14373     14372     14371     14374     14373     14371     14374
     14371     14374     14375     14371     14374     14376     14371     14374     14377
     14375     14374     14376     14375     14374     14377     14376     14374     14377
     14374     14377     14378     14374     14377     14379     14374     14377     14380
     14378     14377     14379     14378     14377     14380     14379     14377     14380
     14331     14381     14382     14331     14381     14383     14331     14381     14384
     14382     14381     14383     14382     14381     14384     14383     14381     14384
     14381     14384     14385     14381     14384     14386     14381     14384     14387
     14385     14384     14386     14385     14384     14387     14386     14384     14387
     14384     14387     14388     14384     14387     14389     14384     14387     14390
     14388     14387     14389     14388     14387     14390     14389     14387     14390
     14387     14390     14391     14387     14390     14392     14387     14390     14393
     14391     14390     14392     14391     14390     14393     14392     14390     14393
     14390     14393     14394     14390     14393     14395     14390     14393     14396
     14394     14393     14395     14394     14393     14396     14395     14393     14396
     14393     14396     14397     14393     14396     14398     14393     14396     14399
     14397     14396     14398     14397     14396     14399     14398     14396     14399
     14396     14399     14400     14396     14399     14401     14396     14399     14402
     14400     14399     14401     14400     14399     14402     14401     14399     14402
     14399     14402     14403     14399     14402     14404     14399     14402     14405
     14403     14402     14404     14403     14402     14405     14404     14402     14405
     14402     14405     14406     14402     14405     14407     14402     14405     14408
     14406     14405     14407     14406     14405     14408     14407     14405     14408
     14405     14408     14409     14405     14408     14410     14405     14408     14411
     14409     14408     14410     14409     14408     14411     14410     14408     14411
     14408     14411     14412     14408     14411     14413     14408     14411     14414
     14412     14411     14413     14412     14411     14414     14413     14411     14414
     14411     14414     14415     14411     14414     14416     14411     14414     14417
     14415     14414     14416     14415     14414     14417     14416     14414     14417
     14414     14417     14418     14414     14417     14419     14414     14417     14420
     14418     14417     14419     14418     14417     14420     14419     14417     14420
     14417     14420     14421     14417     14420     14422     14417     14420     14423
     14421     14420     14422     14421     14420     14423     14422     14420     14423
     14425     14424     14428     14425     14424     14432     14425     14424     14436
     14428     14424     14432     14428     14424     14436     14432     14424     14436
     14424     14425     14426     14424     14425     14427     14424     14425     14440
     14426     14425     14427     14426     14425     14440     14427     14425     14440
     14424     14428     14429     14424     14428     14430     14424     14428     14431
     14429     14428     14430     14429     14428     14431     14430     14428     14431
     14424     14432     14433     14424     14432     14434     14424     14432     14435
     14433     14432     14434     14433     14432     14435     14434     14432     14435
     14424     14436     14437     14424     14436     14438     14424     14436     14439
     14437     14436     14438     14437     14436     14439     14438     14436     14439
     14425     14440     14441     14425     14440     14442     14425     14440     14446
     14441     14440     14442     14441     14440     14446     14442     14440     14446
     14444     14443     14445     14444     14443     14446     14444     14443     14447
     14445     14443     14446     14445     14443     14447     14446     14443     14447
     14440     14446     14443     14443     14447     14448     14447     14448     14449
     14447     14448     14450     14447     14448     14451     14449     14448     14450
     14449     14448     14451     14450     14448     14451     14448     14451     14452
     14448     14451     14453     14448     14451     14459     14452     14451     14453
     14452     14451     14459     14453     14451     14459     14451     14453     14454
     14453     14454     14455     14453     14454     14456     14455     14454     14456
     14454     14456     14457     14454     14456     14458     14454     14456     14468
     14457     14456     14458     14457     14456     14468     14458     14456     14468
     14451     14459     14460     14451     14459     14461     14451     14459     14462
     14460     14459     14461     14460     14459     14462     14461     14459     14462
     14459     14462     14463     14462     14463     14464     14462     14463     14465
     14464     14463     14465     14463     14465     14466     14463     14465     14467
     14463     14465     14515     14466     14465     14467     14466     14465     14515
     14467     14465     14515     14456     14468     14469     14456     14468     14470
     14456     14468     14471     14469     14468     14470     14469     14468     14471
     14470     14468     14471     14468     14471     14472     14468     14471     14473
     14468     14471     14474     14472     14471     14473     14472     14471     14474
     14473     14471     14474     14471     14474     14475     14471     14474     14476
     14471     14474     14477     14475     14474     14476     14475     14474     14477
     14476     14474     14477     14474     14477     14478     14474     14477     14479
     14474     14477     14480     14478     14477     14479     14478     14477     14480
     14479     14477     14480     14477     14480     14481     14477     14480     14482
     14477     14480     14483     14481     14480     14482     14481     14480     14483
     14482     14480     14483     14480     14483     14484     14480     14483     14485
     14480     14483     14486     14484     14483     14485     14484     14483     14486
     14485     14483     14486     14483     14486     14487     14483     14486     14488
     14487     14486     14488     14486     14488     14489     14486     14488     14490
     14489     14488     14490     14488     14490     14491     14488     14490     14492
     14488     14490     14493     14491     14490     14492     14491     14490     14493
     14492     14490     14493     14490     14493     14494     14490     14493     14495
     14490     14493     14496     14494     14493     14495     14494     14493     14496
     14495     14493     14496     14493     14496     14497     14493     14496     14498
     14493     14496     14499     14497     14496     14498     14497     14496     14499
     14498     14496     14499     14496     14499     14500     14496     14499     14501
     14496     14499     14502     14500     14499     14501     14500     14499     14502
     14501     14499     14502     14499     14502     14503     14499     14502     14504
     14499     14502     14505     14503     14502     14504     14503     14502     14505
     14504     14502     14505     14502     14505     14506     14502     14505     14507
     14502     14505     14508     14506     14505     14507     14506     14505     14508
     14507     14505     14508     14505     14508     14509     14505     14508     14510
     14505     14508     14511     14509     14508     14510     14509     14508     14511
     14510     14508     14511     14508     14511     14512     14508     14511     14513
     14508     14511     14514     14512     14511     14513     14512     14511     14514
     14513     14511     14514     14465     14515     14516     14465     14515     14517
     14465     14515     14518     14516     14515     14517     14516     14515     14518
     14517     14515     14518     14515     14518     14519     14515     14518     14520
     14515     14518     14521     14519     14518     14520     14519     14518     14521
     14520     14518     14521     14518     14521     14522     14518     14521     14523
     14518     14521     14524     14522     14521     14523     14522     14521     14524
     14523     14521     14524     14521     14524     14525     14521     14524     14526
     14521     14524     14527     14525     14524     14526     14525     14524     14527
     14526     14524     14527     14524     14527     14528     14524     14527     14529
     14524     14527     14530     14528     14527     14529     14528     14527     14530
     14529     14527     14530     14527     14530     14531     14527     14530     14532
     14527     14530     14533     14531     14530     14532     14531     14530     14533
     14532     14530     14533     14530     14533     14534     14530     14533     14535
     14530     14533     14536     14534     14533     14535     14534     14533     14536
     14535     14533     14536     14533     14536     14537     14533     14536     14538
     14533     14536     14539     14537     14536     14538     14537     14536     14539
     14538     14536     14539     14536     14539     14540     14536     14539     14541
     14536     14539     14542     14540     14539     14541     14540     14539     14542
     14541     14539     14542     14539     14542     14543     14539     14542     14544
     14539     14542     14545     14543     14542     14544     14543     14542     14545
     14544     14542     14545     14542     14545     14546     14542     14545     14547
     14542     14545     14548     14546     14545     14547     14546     14545     14548
     14547     14545     14548     14545     14548     14549     14545     14548     14550
     14545     14548     14551     14549     14548     14550     14549     14548     14551
     14550     14548     14551     14548     14551     14552     14548     14551     14553
     14548     14551     14554     14552     14551     14553     14552     14551     14554
     14553     14551     14554     14551     14554     14555     14551     14554     14556
     14551     14554     14557     14555     14554     14556     14555     14554     14557
     14556     14554     14557     14559     14558     14562     14559     14558     14566
     14559     14558     14570     14562     14558     14566     14562     14558     14570
     14566     14558     14570     14558     14559     14560     14558     14559     14561
     14558     14559     14574     14560     14559     14561     14560     14559     14574
     14561     14559     14574     14558     14562     14563     14558     14562     14564
     14558     14562     14565     14563     14562     14564     14563     14562     14565
     14564     14562     14565     14558     14566     14567     14558     14566     14568
     14558     14566     14569     14567     14566     14568     14567     14566     14569
     14568     14566     14569     14558     14570     14571     14558     14570     14572
     14558     14570     14573     14571     14570     14572     14571     14570     14573
     14572     14570     14573     14559     14574     14575     14559     14574     14576
     14559     14574     14580     14575     14574     14576     14575     14574     14580
     14576     14574     14580     14578     14577     14579     14578     14577     14580
     14578     14577     14581     14579     14577     14580     14579     14577     14581
     14580     14577     14581     14574     14580     14577     14577     14581     14582
     14581     14582     14583     14581     14582     14584     14581     14582     14585
     14583     14582     14584     14583     14582     14585     14584     14582     14585
     14582     14585     14586     14582     14585     14587     14582     14585     14593
     14586     14585     14587     14586     14585     14593     14587     14585     14593
     14585     14587     14588     14587     14588     14589     14587     14588     14590
     14589     14588     14590     14588     14590     14591     14588     14590     14592
     14588     14590     14602     14591     14590     14592     14591     14590     14602
     14592     14590     14602     14585     14593     14594     14585     14593     14595
     14585     14593     14596     14594     14593     14595     14594     14593     14596
     14595     14593     14596     14593     14596     14597     14596     14597     14598
     14596     14597     14599     14598     14597     14599     14597     14599     14600
     14597     14599     14601     14597     14599     14649     14600     14599     14601
     14600     14599     14649     14601     14599     14649     14590     14602     14603
     14590     14602     14604     14590     14602     14605     14603     14602     14604
     14603     14602     14605     14604     14602     14605     14602     14605     14606
     14602     14605     14607     14602     14605     14608     14606     14605     14607
     14606     14605     14608     14607     14605     14608     14605     14608     14609
     14605     14608     14610     14605     14608     14611     14609     14608     14610
     14609     14608     14611     14610     14608     14611     14608     14611     14612
     14608     14611     14613     14608     14611     14614     14612     14611     14613
     14612     14611     14614     14613     14611     14614     14611     14614     14615
     14611     14614     14616     14611     14614     14617     14615     14614     14616
     14615     14614     14617     14616     14614     14617     14614     14617     14618
     14614     14617     14619     14614     14617     14620     14618     14617     14619
     14618     14617     14620     14619     14617     14620     14617     14620     14621
     14617     14620     14622     14621     14620     14622     14620     14622     14623
     14620     14622     14624     14623     14622     14624     14622     14624     14625
     14622     14624     14626     14622     14624     14627     14625     14624     14626
     14625     14624     14627     14626     14624     14627     14624     14627     14628
     14624     14627     14629     14624     14627     14630     14628     14627     14629
     14628     14627     14630     14629     14627     14630     14627     14630     14631
     14627     14630     14632     14627     14630     14633     14631     14630     14632
     14631     14630     14633     14632     14630     14633     14630     14633     14634
     14630     14633     14635     14630     14633     14636     14634     14633     14635
     14634     14633     14636     14635     14633     14636     14633     14636     14637
     14633     14636     14638     14633     14636     14639     14637     14636     14638
     14637     14636     14639     14638     14636     14639     14636     14639     14640
     14636     14639     14641     14636     14639     14642     14640     14639     14641
     14640     14639     14642     14641     14639     14642     14639     14642     14643
     14639     14642     14644     14639     14642     14645     14643     14642     14644
     14643     14642     14645     14644     14642     14645     14642     14645     14646
     14642     14645     14647     14642     14645     14648     14646     14645     14647
     14646     14645     14648     14647     14645     14648     14599     14649     14650
     14599     14649     14651     14599     14649     14652     14650     14649     14651
     14650     14649     14652     14651     14649     14652     14649     14652     14653
     14649     14652     14654     14649     14652     14655     14653     14652     14654
     14653     14652     14655     14654     14652     14655     14652     14655     14656
     14652     14655     14657     14652     14655     14658     14656     14655     14657
     14656     14655     14658     14657     14655     14658     14655     14658     14659
     14655     14658     14660     14655     14658     14661     14659     14658     14660
     14659     14658     14661     14660     14658     14661     14658     14661     14662
     14658     14661     14663     14658     14661     14664     14662     14661     14663
     14662     14661     14664     14663     14661     14664     14661     14664     14665
     14661     14664     14666     14661     14664     14667     14665     14664     14666
     14665     14664     14667     14666     14664     14667     14664     14667     14668
     14664     14667     14669     14664     14667     14670     14668     14667     14669
     14668     14667     14670     14669     14667     14670     14667     14670     14671
     14667     14670     14672     14667     14670     14673     14671     14670     14672
     14671     14670     14673     14672     14670     14673     14670     14673     14674
     14670     14673     14675     14670     14673     14676     14674     14673     14675
     14674     14673     14676     14675     14673     14676     14673     14676     14677
     14673     14676     14678     14673     14676     14679     14677     14676     14678
     14677     14676     14679     14678     14676     14679     14676     14679     14680
     14676     14679     14681     14676     14679     14682     14680     14679     14681
     14680     14679     14682     14681     14679     14682     14679     14682     14683
     14679     14682     14684     14679     14682     14685     14683     14682     14684
     14683     14682     14685     14684     14682     14685     14682     14685     14686
     14682     14685     14687     14682     14685     14688     14686     14685     14687
     14686     14685     14688     14687     14685     14688     14685     14688     14689
     14685     14688     14690     14685     14688     14691     14689     14688     14690
     14689     14688     14691     14690     14688     14691     14693     14692     14694
     14693     14692     14695     14693     14692     14696     14694     14692     14695
     14694     14692     14696     14695     14692     14696     14692     14696     14697
     14692     14696     14698     14692     14696     14701     14697     14696     14698
     14697     14696     14701     14698     14696     14701     14696     14698     14699
     14696     14698     14700     14699     14698     14700     14696     14701     14702
     14696     14701     14703     14696     14701     14707     14702     14701     14703
     14702     14701     14707     14703     14701     14707     14705     14704     14706
     14705     14704     14707     14705     14704     14708     14706     14704     14707
     14706     14704     14708     14707     14704     14708     14701     14707     14704
     14704     14708     14709     14708     14709     14710     14708     14709     14711
     14708     14709     14712     14710     14709     14711     14710     14709     14712
     14711     14709     14712     14709     14712     14713     14709     14712     14714
     14709     14712     14720     14713     14712     14714     14713     14712     14720
     14714     14712     14720     14712     14714     14715     14714     14715     14716
     14714     14715     14717     14716     14715     14717     14715     14717     14718
     14715     14717     14719     14715     14717     14729     14718     14717     14719
     14718     14717     14729     14719     14717     14729     14712     14720     14721
     14712     14720     14722     14712     14720     14723     14721     14720     14722
     14721     14720     14723     14722     14720     14723     14720     14723     14724
     14723     14724     14725     14723     14724     14726     14725     14724     14726
     14724     14726     14727     14724     14726     14728     14724     14726     14776
     14727     14726     14728     14727     14726     14776     14728     14726     14776
     14717     14729     14730     14717     14729     14731     14717     14729     14732
     14730     14729     14731     14730     14729     14732     14731     14729     14732
     14729     14732     14733     14729     14732     14734     14729     14732     14735
     14733     14732     14734     14733     14732     14735     14734     14732     14735
     14732     14735     14736     14732     14735     14737     14732     14735     14738
     14736     14735     14737     14736     14735     14738     14737     14735     14738
     14735     14738     14739     14735     14738     14740     14735     14738     14741
     14739     14738     14740     14739     14738     14741     14740     14738     14741
     14738     14741     14742     14738     14741     14743     14738     14741     14744
     14742     14741     14743     14742     14741     14744     14743     14741     14744
     14741     14744     14745     14741     14744     14746     14741     14744     14747
     14745     14744     14746     14745     14744     14747     14746     14744     14747
     14744     14747     14748     14744     14747     14749     14748     14747     14749
     14747     14749     14750     14747     14749     14751     14750     14749     14751
     14749     14751     14752     14749     14751     14753     14749     14751     14754
     14752     14751     14753     14752     14751     14754     14753     14751     14754
     14751     14754     14755     14751     14754     14756     14751     14754     14757
     14755     14754     14756     14755     14754     14757     14756     14754     14757
     14754     14757     14758     14754     14757     14759     14754     14757     14760
     14758     14757     14759     14758     14757     14760     14759     14757     14760
     14757     14760     14761     14757     14760     14762     14757     14760     14763
     14761     14760     14762     14761     14760     14763     14762     14760     14763
     14760     14763     14764     14760     14763     14765     14760     14763     14766
     14764     14763     14765     14764     14763     14766     14765     14763     14766
     14763     14766     14767     14763     14766     14768     14763     14766     14769
     14767     14766     14768     14767     14766     14769     14768     14766     14769
     14766     14769     14770     14766     14769     14771     14766     14769     14772
     14770     14769     14771     14770     14769     14772     14771     14769     14772
     14769     14772     14773     14769     14772     14774     14769     14772     14775
     14773     14772     14774     14773     14772     14775     14774     14772     14775
     14726     14776     14777     14726     14776     14778     14726     14776     14779
     14777     14776     14778     14777     14776     14779     14778     14776     14779
     14776     14779     14780     14776     14779     14781     14776     14779     14782
     14780     14779     14781     14780     14779     14782     14781     14779     14782
     14779     14782     14783     14779     14782     14784     14779     14782     14785
     14783     14782     14784     14783     14782     14785     14784     14782     14785
     14782     14785     14786     14782     14785     14787     14782     14785     14788
     14786     14785     14787     14786     14785     14788     14787     14785     14788
     14785     14788     14789     14785     14788     14790     14785     14788     14791
     14789     14788     14790     14789     14788     14791     14790     14788     14791
     14788     14791     14792     14788     14791     14793     14788     14791     14794
     14792     14791     14793     14792     14791     14794     14793     14791     14794
     14791     14794     14795     14791     14794     14796     14791     14794     14797
     14795     14794     14796     14795     14794     14797     14796     14794     14797
     14794     14797     14798     14794     14797     14799     14794     14797     14800
     14798     14797     14799     14798     14797     14800     14799     14797     14800
     14797     14800     14801     14797     14800     14802     14797     14800     14803
     14801     14800     14802     14801     14800     14803     14802     14800     14803
     14800     14803     14804     14800     14803     14805     14800     14803     14806
     14804     14803     14805     14804     14803     14806     14805     14803     14806
     14803     14806     14807     14803     14806     14808     14803     14806     14809
     14807     14806     14808     14807     14806     14809     14808     14806     14809
     14806     14809     14810     14806     14809     14811     14806     14809     14812
     14810     14809     14811     14810     14809     14812     14811     14809     14812
     14809     14812     14813     14809     14812     14814     14809     14812     14815
     14813     14812     14814     14813     14812     14815     14814     14812     14815
     14812     14815     14816     14812     14815     14817     14812     14815     14818
     14816     14815     14817     14816     14815     14818     14817     14815     14818
     14820     14819     14823     14820     14819     14827     14820     14819     14831
     14823     14819     14827     14823     14819     14831     14827     14819     14831
     14819     14820     14821     14819     14820     14822     14819     14820     14835
     14821     14820     14822     14821     14820     14835     14822     14820     14835
     14819     14823     14824     14819     14823     14825     14819     14823     14826
     14824     14823     14825     14824     14823     14826     14825     14823     14826
     14819     14827     14828     14819     14827     14829     14819     14827     14830
     14828     14827     14829     14828     14827     14830     14829     14827     14830
     14819     14831     14832     14819     14831     14833     14819     14831     14834
     14832     14831     14833     14832     14831     14834     14833     14831     14834
     14820     14835     14836     14820     14835     14837     14820     14835     14841
     14836     14835     14837     14836     14835     14841     14837     14835     14841
     14839     14838     14840     14839     14838     14841     14839     14838     14842
     14840     14838     14841     14840     14838     14842     14841     14838     14842
     14835     14841     14838     14838     14842     14843     14842     14843     14844
     14842     14843     14845     14842     14843     14846     14844     14843     14845
     14844     14843     14846     14845     14843     14846     14843     14846     14847
     14843     14846     14848     14843     14846     14854     14847     14846     14848
     14847     14846     14854     14848     14846     14854     14846     14848     14849
     14848     14849     14850     14848     14849     14851     14850     14849     14851
     14849     14851     14852     14849     14851     14853     14849     14851     14863
     14852     14851     14853     14852     14851     14863     14853     14851     14863
     14846     14854     14855     14846     14854     14856     14846     14854     14857
     14855     14854     14856     14855     14854     14857     14856     14854     14857
     14854     14857     14858     14857     14858     14859     14857     14858     14860
     14859     14858     14860     14858     14860     14861     14858     14860     14862
     14858     14860     14910     14861     14860     14862     14861     14860     14910
     14862     14860     14910     14851     14863     14864     14851     14863     14865
     14851     14863     14866     14864     14863     14865     14864     14863     14866
     14865     14863     14866     14863     14866     14867     14863     14866     14868
     14863     14866     14869     14867     14866     14868     14867     14866     14869
     14868     14866     14869     14866     14869     14870     14866     14869     14871
     14866     14869     14872     14870     14869     14871     14870     14869     14872
     14871     14869     14872     14869     14872     14873     14869     14872     14874
     14869     14872     14875     14873     14872     14874     14873     14872     14875
     14874     14872     14875     14872     14875     14876     14872     14875     14877
     14872     14875     14878     14876     14875     14877     14876     14875     14878
     14877     14875     14878     14875     14878     14879     14875     14878     14880
     14875     14878     14881     14879     14878     14880     14879     14878     14881
     14880     14878     14881     14878     14881     14882     14878     14881     14883
     14882     14881     14883     14881     14883     14884     14881     14883     14885
     14884     14883     14885     14883     14885     14886     14883     14885     14887
     14883     14885     14888     14886     14885     14887     14886     14885     14888
     14887     14885     14888     14885     14888     14889     14885     14888     14890
     14885     14888     14891     14889     14888     14890     14889     14888     14891
     14890     14888     14891     14888     14891     14892     14888     14891     14893
     14888     14891     14894     14892     14891     14893     14892     14891     14894
     14893     14891     14894     14891     14894     14895     14891     14894     14896
     14891     14894     14897     14895     14894     14896     14895     14894     14897
     14896     14894     14897     14894     14897     14898     14894     14897     14899
     14894     14897     14900     14898     14897     14899     14898     14897     14900
     14899     14897     14900     14897     14900     14901     14897     14900     14902
     14897     14900     14903     14901     14900     14902     14901     14900     14903
     14902     14900     14903     14900     14903     14904     14900     14903     14905
     14900     14903     14906     14904     14903     14905     14904     14903     14906
     14905     14903     14906     14903     14906     14907     14903     14906     14908
     14903     14906     14909     14907     14906     14908     14907     14906     14909
     14908     14906     14909     14860     14910     14911     14860     14910     14912
     14860     14910     14913     14911     14910     14912     14911     14910     14913
     14912     14910     14913     14910     14913     14914     14910     14913     14915
     14910     14913     14916     14914     14913     14915     14914     14913     14916
     14915     14913     14916     14913     14916     14917     14913     14916     14918
     14913     14916     14919     14917     14916     14918     14917     14916     14919
     14918     14916     14919     14916     14919     14920     14916     14919     14921
     14916     14919     14922     14920     14919     14921     14920     14919     14922
     14921     14919     14922     14919     14922     14923     14919     14922     14924
     14919     14922     14925     14923     14922     14924     14923     14922     14925
     14924     14922     14925     14922     14925     14926     14922     14925     14927
     14922     14925     14928     14926     14925     14927     14926     14925     14928
     14927     14925     14928     14925     14928     14929     14925     14928     14930
     14925     14928     14931     14929     14928     14930     14929     14928     14931
     14930     14928     14931     14928     14931     14932     14928     14931     14933
     14928     14931     14934     14932     14931     14933     14932     14931     14934
     14933     14931     14934     14931     14934     14935     14931     14934     14936
     14931     14934     14937     14935     14934     14936     14935     14934     14937
     14936     14934     14937     14934     14937     14938     14934     14937     14939
     14934     14937     14940     14938     14937     14939     14938     14937     14940
     14939     14937     14940     14937     14940     14941     14937     14940     14942
     14937     14940     14943     14941     14940     14942     14941     14940     14943
     14942     14940     14943     14940     14943     14944     14940     14943     14945
     14940     14943     14946     14944     14943     14945     14944     14943     14946
     14945     14943     14946     14943     14946     14947     14943     14946     14948
     14943     14946     14949     14947     14946     14948     14947     14946     14949
     14948     14946     14949     14946     14949     14950     14946     14949     14951
     14946     14949     14952     14950     14949     14951     14950     14949     14952
     14951     14949     14952     14954     14953     14957     14954     14953     14961
     14954     14953     14965     14957     14953     14961     14957     14953     14965
     14961     14953     14965     14953     14954     14955     14953     14954     14956
     14953     14954     14969     14955     14954     14956     14955     14954     14969
     14956     14954     14969     14953     14957     14958     14953     14957     14959
     14953     14957     14960     14958     14957     14959     14958     14957     14960
     14959     14957     14960     14953     14961     14962     14953     14961     14963
     14953     14961     14964     14962     14961     14963     14962     14961     14964
     14963     14961     14964     14953     14965     14966     14953     14965     14967
     14953     14965     14968     14966     14965     14967     14966     14965     14968
     14967     14965     14968     14954     14969     14970     14954     14969     14971
     14954     14969     14975     14970     14969     14971     14970     14969     14975
     14971     14969     14975     14973     14972     14974     14973     14972     14975
     14973     14972     14976     14974     14972     14975     14974     14972     14976
     14975     14972     14976     14969     14975     14972     14972     14976     14977
     14976     14977     14978     14976     14977     14979     14976     14977     14980
     14978     14977     14979     14978     14977     14980     14979     14977     14980
     14977     14980     14981     14977     14980     14982     14977     14980     14988
     14981     14980     14982     14981     14980     14988     14982     14980     14988
     14980     14982     14983     14982     14983     14984     14982     14983     14985
     14984     14983     14985     14983     14985     14986     14983     14985     14987
     14983     14985     14997     14986     14985     14987     14986     14985     14997
     14987     14985     14997     14980     14988     14989     14980     14988     14990
     14980     14988     14991     14989     14988     14990     14989     14988     14991
     14990     14988     14991     14988     14991     14992     14991     14992     14993
     14991     14992     14994     14993     14992     14994     14992     14994     14995
     14992     14994     14996     14992     14994     15044     14995     14994     14996
     14995     14994     15044     14996     14994     15044     14985     14997     14998
     14985     14997     14999     14985     14997     15000     14998     14997     14999
     14998     14997     15000     14999     14997     15000     14997     15000     15001
     14997     15000     15002     14997     15000     15003     15001     15000     15002
     15001     15000     15003     15002     15000     15003     15000     15003     15004
     15000     15003     15005     15000     15003     15006     15004     15003     15005
     15004     15003     15006     15005     15003     15006     15003     15006     15007
     15003     15006     15008     15003     15006     15009     15007     15006     15008
     15007     15006     15009     15008     15006     15009     15006     15009     15010
     15006     15009     15011     15006     15009     15012     15010     15009     15011
     15010     15009     15012     15011     15009     15012     15009     15012     15013
     15009     15012     15014     15009     15012     15015     15013     15012     15014
     15013     15012     15015     15014     15012     15015     15012     15015     15016
     15012     15015     15017     15016     15015     15017     15015     15017     15018
     15015     15017     15019     15018     15017     15019     15017     15019     15020
     15017     15019     15021     15017     15019     15022     15020     15019     15021
     15020     15019     15022     15021     15019     15022     15019     15022     15023
     15019     15022     15024     15019     15022     15025     15023     15022     15024
     15023     15022     15025     15024     15022     15025     15022     15025     15026
     15022     15025     15027     15022     15025     15028     15026     15025     15027
     15026     15025     15028     15027     15025     15028     15025     15028     15029
     15025     15028     15030     15025     15028     15031     15029     15028     15030
     15029     15028     15031     15030     15028     15031     15028     15031     15032
     15028     15031     15033     15028     15031     15034     15032     15031     15033
     15032     15031     15034     15033     15031     15034     15031     15034     15035
     15031     15034     15036     15031     15034     15037     15035     15034     15036
     15035     15034     15037     15036     15034     15037     15034     15037     15038
     15034     15037     15039     15034     15037     15040     15038     15037     15039
     15038     15037     15040     15039     15037     15040     15037     15040     15041
     15037     15040     15042     15037     15040     15043     15041     15040     15042
     15041     15040     15043     15042     15040     15043     14994     15044     15045
     14994     15044     15046     14994     15044     15047     15045     15044     15046
     15045     15044     15047     15046     15044     15047     15044     15047     15048
     15044     15047     15049     15044     15047     15050     15048     15047     15049
     15048     15047     15050     15049     15047     15050     15047     15050     15051
     15047     15050     15052     15047     15050     15053     15051     15050     15052
     15051     15050     15053     15052     15050     15053     15050     15053     15054
     15050     15053     15055     15050     15053     15056     15054     15053     15055
     15054     15053     15056     15055     15053     15056     15053     15056     15057
     15053     15056     15058     15053     15056     15059     15057     15056     15058
     15057     15056     15059     15058     15056     15059     15056     15059     15060
     15056     15059     15061     15056     15059     15062     15060     15059     15061
     15060     15059     15062     15061     15059     15062     15059     15062     15063
     15059     15062     15064     15059     15062     15065     15063     15062     15064
     15063     15062     15065     15064     15062     15065     15062     15065     15066
     15062     15065     15067     15062     15065     15068     15066     15065     15067
     15066     15065     15068     15067     15065     15068     15065     15068     15069
     15065     15068     15070     15065     15068     15071     15069     15068     15070
     15069     15068     15071     15070     15068     15071     15068     15071     15072
     15068     15071     15073     15068     15071     15074     15072     15071     15073
     15072     15071     15074     15073     15071     15074     15071     15074     15075
     15071     15074     15076     15071     15074     15077     15075     15074     15076
     15075     15074     15077     15076     15074     15077     15074     15077     15078
     15074     15077     15079     15074     15077     15080     15078     15077     15079
     15078     15077     15080     15079     15077     15080     15077     15080     15081
     15077     15080     15082     15077     15080     15083     15081     15080     15082
     15081     15080     15083     15082     15080     15083     15080     15083     15084
     15080     15083     15085     15080     15083     15086     15084     15083     15085
     15084     15083     15086     15085     15083     15086     15088     15087     15089
     15088     15087     15090     15088     15087     15091     15089     15087     15090
     15089     15087     15091     15090     15087     15091     15087     15091     15092
     15087     15091     15093     15087     15091     15096     15092     15091     15093
     15092     15091     15096     15093     15091     15096     15091     15093     15094
     15091     15093     15095     15094     15093     15095     15091     15096     15097
     15091     15096     15098     15091     15096     15102     15097     15096     15098
     15097     15096     15102     15098     15096     15102     15100     15099     15101
     15100     15099     15102     15100     15099     15103     15101     15099     15102
     15101     15099     15103     15102     15099     15103     15096     15102     15099
     15099     15103     15104     15103     15104     15105     15103     15104     15106
     15103     15104     15107     15105     15104     15106     15105     15104     15107
     15106     15104     15107     15104     15107     15108     15104     15107     15109
     15104     15107     15115     15108     15107     15109     15108     15107     15115
     15109     15107     15115     15107     15109     15110     15109     15110     15111
     15109     15110     15112     15111     15110     15112     15110     15112     15113
     15110     15112     15114     15110     15112     15124     15113     15112     15114
     15113     15112     15124     15114     15112     15124     15107     15115     15116
     15107     15115     15117     15107     15115     15118     15116     15115     15117
     15116     15115     15118     15117     15115     15118     15115     15118     15119
     15118     15119     15120     15118     15119     15121     15120     15119     15121
     15119     15121     15122     15119     15121     15123     15119     15121     15171
     15122     15121     15123     15122     15121     15171     15123     15121     15171
     15112     15124     15125     15112     15124     15126     15112     15124     15127
     15125     15124     15126     15125     15124     15127     15126     15124     15127
     15124     15127     15128     15124     15127     15129     15124     15127     15130
     15128     15127     15129     15128     15127     15130     15129     15127     15130
     15127     15130     15131     15127     15130     15132     15127     15130     15133
     15131     15130     15132     15131     15130     15133     15132     15130     15133
     15130     15133     15134     15130     15133     15135     15130     15133     15136
     15134     15133     15135     15134     15133     15136     15135     15133     15136
     15133     15136     15137     15133     15136     15138     15133     15136     15139
     15137     15136     15138     15137     15136     15139     15138     15136     15139
     15136     15139     15140     15136     15139     15141     15136     15139     15142
     15140     15139     15141     15140     15139     15142     15141     15139     15142
     15139     15142     15143     15139     15142     15144     15143     15142     15144
     15142     15144     15145     15142     15144     15146     15145     15144     15146
     15144     15146     15147     15144     15146     15148     15144     15146     15149
     15147     15146     15148     15147     15146     15149     15148     15146     15149
     15146     15149     15150     15146     15149     15151     15146     15149     15152
     15150     15149     15151     15150     15149     15152     15151     15149     15152
     15149     15152     15153     15149     15152     15154     15149     15152     15155
     15153     15152     15154     15153     15152     15155     15154     15152     15155
     15152     15155     15156     15152     15155     15157     15152     15155     15158
     15156     15155     15157     15156     15155     15158     15157     15155     15158
     15155     15158     15159     15155     15158     15160     15155     15158     15161
     15159     15158     15160     15159     15158     15161     15160     15158     15161
     15158     15161     15162     15158     15161     15163     15158     15161     15164
     15162     15161     15163     15162     15161     15164     15163     15161     15164
     15161     15164     15165     15161     15164     15166     15161     15164     15167
     15165     15164     15166     15165     15164     15167     15166     15164     15167
     15164     15167     15168     15164     15167     15169     15164     15167     15170
     15168     15167     15169     15168     15167     15170     15169     15167     15170
     15121     15171     15172     15121     15171     15173     15121     15171     15174
     15172     15171     15173     15172     15171     15174     15173     15171     15174
     15171     15174     15175     15171     15174     15176     15171     15174     15177
     15175     15174     15176     15175     15174     15177     15176     15174     15177
     15174     15177     15178     15174     15177     15179     15174     15177     15180
     15178     15177     15179     15178     15177     15180     15179     15177     15180
     15177     15180     15181     15177     15180     15182     15177     15180     15183
     15181     15180     15182     15181     15180     15183     15182     15180     15183
     15180     15183     15184     15180     15183     15185     15180     15183     15186
     15184     15183     15185     15184     15183     15186     15185     15183     15186
     15183     15186     15187     15183     15186     15188     15183     15186     15189
     15187     15186     15188     15187     15186     15189     15188     15186     15189
     15186     15189     15190     15186     15189     15191     15186     15189     15192
     15190     15189     15191     15190     15189     15192     15191     15189     15192
     15189     15192     15193     15189     15192     15194     15189     15192     15195
     15193     15192     15194     15193     15192     15195     15194     15192     15195
     15192     15195     15196     15192     15195     15197     15192     15195     15198
     15196     15195     15197     15196     15195     15198     15197     15195     15198
     15195     15198     15199     15195     15198     15200     15195     15198     15201
     15199     15198     15200     15199     15198     15201     15200     15198     15201
     15198     15201     15202     15198     15201     15203     15198     15201     15204
     15202     15201     15203     15202     15201     15204     15203     15201     15204
     15201     15204     15205     15201     15204     15206     15201     15204     15207
     15205     15204     15206     15205     15204     15207     15206     15204     15207
     15204     15207     15208     15204     15207     15209     15204     15207     15210
     15208     15207     15209     15208     15207     15210     15209     15207     15210
     15207     15210     15211     15207     15210     15212     15207     15210     15213
     15211     15210     15212     15211     15210     15213     15212     15210     15213
     15215     15214     15218     15215     15214     15222     15215     15214     15226
     15218     15214     15222     15218     15214     15226     15222     15214     15226
     15214     15215     15216     15214     15215     15217     15214     15215     15230
     15216     15215     15217     15216     15215     15230     15217     15215     15230
     15214     15218     15219     15214     15218     15220     15214     15218     15221
     15219     15218     15220     15219     15218     15221     15220     15218     15221
     15214     15222     15223     15214     15222     15224     15214     15222     15225
     15223     15222     15224     15223     15222     15225     15224     15222     15225
     15214     15226     15227     15214     15226     15228     15214     15226     15229
     15227     15226     15228     15227     15226     15229     15228     15226     15229
     15215     15230     15231     15215     15230     15232     15215     15230     15236
     15231     15230     15232     15231     15230     15236     15232     15230     15236
     15234     15233     15235     15234     15233     15236     15234     15233     15237
     15235     15233     15236     15235     15233     15237     15236     15233     15237
     15230     15236     15233     15233     15237     15238     15237     15238     15239
     15237     15238     15240     15237     15238     15241     15239     15238     15240
     15239     15238     15241     15240     15238     15241     15238     15241     15242
     15238     15241     15243     15238     15241     15249     15242     15241     15243
     15242     15241     15249     15243     15241     15249     15241     15243     15244
     15243     15244     15245     15243     15244     15246     15245     15244     15246
     15244     15246     15247     15244     15246     15248     15244     15246     15258
     15247     15246     15248     15247     15246     15258     15248     15246     15258
     15241     15249     15250     15241     15249     15251     15241     15249     15252
     15250     15249     15251     15250     15249     15252     15251     15249     15252
     15249     15252     15253     15252     15253     15254     15252     15253     15255
     15254     15253     15255     15253     15255     15256     15253     15255     15257
     15253     15255     15305     15256     15255     15257     15256     15255     15305
     15257     15255     15305     15246     15258     15259     15246     15258     15260
     15246     15258     15261     15259     15258     15260     15259     15258     15261
     15260     15258     15261     15258     15261     15262     15258     15261     15263
     15258     15261     15264     15262     15261     15263     15262     15261     15264
     15263     15261     15264     15261     15264     15265     15261     15264     15266
     15261     15264     15267     15265     15264     15266     15265     15264     15267
     15266     15264     15267     15264     15267     15268     15264     15267     15269
     15264     15267     15270     15268     15267     15269     15268     15267     15270
     15269     15267     15270     15267     15270     15271     15267     15270     15272
     15267     15270     15273     15271     15270     15272     15271     15270     15273
     15272     15270     15273     15270     15273     15274     15270     15273     15275
     15270     15273     15276     15274     15273     15275     15274     15273     15276
     15275     15273     15276     15273     15276     15277     15273     15276     15278
     15277     15276     15278     15276     15278     15279     15276     15278     15280
     15279     15278     15280     15278     15280     15281     15278     15280     15282
     15278     15280     15283     15281     15280     15282     15281     15280     15283
     15282     15280     15283     15280     15283     15284     15280     15283     15285
     15280     15283     15286     15284     15283     15285     15284     15283     15286
     15285     15283     15286     15283     15286     15287     15283     15286     15288
     15283     15286     15289     15287     15286     15288     15287     15286     15289
     15288     15286     15289     15286     15289     15290     15286     15289     15291
     15286     15289     15292     15290     15289     15291     15290     15289     15292
     15291     15289     15292     15289     15292     15293     15289     15292     15294
     15289     15292     15295     15293     15292     15294     15293     15292     15295
     15294     15292     15295     15292     15295     15296     15292     15295     15297
     15292     15295     15298     15296     15295     15297     15296     15295     15298
     15297     15295     15298     15295     15298     15299     15295     15298     15300
     15295     15298     15301     15299     15298     15300     15299     15298     15301
     15300     15298     15301     15298     15301     15302     15298     15301     15303
     15298     15301     15304     15302     15301     15303     15302     15301     15304
     15303     15301     15304     15255     15305     15306     15255     15305     15307
     15255     15305     15308     15306     15305     15307     15306     15305     15308
     15307     15305     15308     15305     15308     15309     15305     15308     15310
     15305     15308     15311     15309     15308     15310     15309     15308     15311
     15310     15308     15311     15308     15311     15312     15308     15311     15313
     15308     15311     15314     15312     15311     15313     15312     15311     15314
     15313     15311     15314     15311     15314     15315     15311     15314     15316
     15311     15314     15317     15315     15314     15316     15315     15314     15317
     15316     15314     15317     15314     15317     15318     15314     15317     15319
     15314     15317     15320     15318     15317     15319     15318     15317     15320
     15319     15317     15320     15317     15320     15321     15317     15320     15322
     15317     15320     15323     15321     15320     15322     15321     15320     15323
     15322     15320     15323     15320     15323     15324     15320     15323     15325
     15320     15323     15326     15324     15323     15325     15324     15323     15326
     15325     15323     15326     15323     15326     15327     15323     15326     15328
     15323     15326     15329     15327     15326     15328     15327     15326     15329
     15328     15326     15329     15326     15329     15330     15326     15329     15331
     15326     15329     15332     15330     15329     15331     15330     15329     15332
     15331     15329     15332     15329     15332     15333     15329     15332     15334
     15329     15332     15335     15333     15332     15334     15333     15332     15335
     15334     15332     15335     15332     15335     15336     15332     15335     15337
     15332     15335     15338     15336     15335     15337     15336     15335     15338
     15337     15335     15338     15335     15338     15339     15335     15338     15340
     15335     15338     15341     15339     15338     15340     15339     15338     15341
     15340     15338     15341     15338     15341     15342     15338     15341     15343
     15338     15341     15344     15342     15341     15343     15342     15341     15344
     15343     15341     15344     15341     15344     15345     15341     15344     15346
     15341     15344     15347     15345     15344     15346     15345     15344     15347
     15346     15344     15347     15349     15348     15352     15349     15348     15356
     15349     15348     15360     15352     15348     15356     15352     15348     15360
     15356     15348     15360     15348     15349     15350     15348     15349     15351
     15348     15349     15364     15350     15349     15351     15350     15349     15364
     15351     15349     15364     15348     15352     15353     15348     15352     15354
     15348     15352     15355     15353     15352     15354     15353     15352     15355
     15354     15352     15355     15348     15356     15357     15348     15356     15358
     15348     15356     15359     15357     15356     15358     15357     15356     15359
     15358     15356     15359     15348     15360     15361     15348     15360     15362
     15348     15360     15363     15361     15360     15362     15361     15360     15363
     15362     15360     15363     15349     15364     15365     15349     15364     15366
     15349     15364     15370     15365     15364     15366     15365     15364     15370
     15366     15364     15370     15368     15367     15369     15368     15367     15370
     15368     15367     15371     15369     15367     15370     15369     15367     15371
     15370     15367     15371     15364     15370     15367     15367     15371     15372
     15371     15372     15373     15371     15372     15374     15371     15372     15375
     15373     15372     15374     15373     15372     15375     15374     15372     15375
     15372     15375     15376     15372     15375     15377     15372     15375     15383
     15376     15375     15377     15376     15375     15383     15377     15375     15383
     15375     15377     15378     15377     15378     15379     15377     15378     15380
     15379     15378     15380     15378     15380     15381     15378     15380     15382
     15378     15380     15392     15381     15380     15382     15381     15380     15392
     15382     15380     15392     15375     15383     15384     15375     15383     15385
     15375     15383     15386     15384     15383     15385     15384     15383     15386
     15385     15383     15386     15383     15386     15387     15386     15387     15388
     15386     15387     15389     15388     15387     15389     15387     15389     15390
     15387     15389     15391     15387     15389     15439     15390     15389     15391
     15390     15389     15439     15391     15389     15439     15380     15392     15393
     15380     15392     15394     15380     15392     15395     15393     15392     15394
     15393     15392     15395     15394     15392     15395     15392     15395     15396
     15392     15395     15397     15392     15395     15398     15396     15395     15397
     15396     15395     15398     15397     15395     15398     15395     15398     15399
     15395     15398     15400     15395     15398     15401     15399     15398     15400
     15399     15398     15401     15400     15398     15401     15398     15401     15402
     15398     15401     15403     15398     15401     15404     15402     15401     15403
     15402     15401     15404     15403     15401     15404     15401     15404     15405
     15401     15404     15406     15401     15404     15407     15405     15404     15406
     15405     15404     15407     15406     15404     15407     15404     15407     15408
     15404     15407     15409     15404     15407     15410     15408     15407     15409
     15408     15407     15410     15409     15407     15410     15407     15410     15411
     15407     15410     15412     15411     15410     15412     15410     15412     15413
     15410     15412     15414     15413     15412     15414     15412     15414     15415
     15412     15414     15416     15412     15414     15417     15415     15414     15416
     15415     15414     15417     15416     15414     15417     15414     15417     15418
     15414     15417     15419     15414     15417     15420     15418     15417     15419
     15418     15417     15420     15419     15417     15420     15417     15420     15421
     15417     15420     15422     15417     15420     15423     15421     15420     15422
     15421     15420     15423     15422     15420     15423     15420     15423     15424
     15420     15423     15425     15420     15423     15426     15424     15423     15425
     15424     15423     15426     15425     15423     15426     15423     15426     15427
     15423     15426     15428     15423     15426     15429     15427     15426     15428
     15427     15426     15429     15428     15426     15429     15426     15429     15430
     15426     15429     15431     15426     15429     15432     15430     15429     15431
     15430     15429     15432     15431     15429     15432     15429     15432     15433
     15429     15432     15434     15429     15432     15435     15433     15432     15434
     15433     15432     15435     15434     15432     15435     15432     15435     15436
     15432     15435     15437     15432     15435     15438     15436     15435     15437
     15436     15435     15438     15437     15435     15438     15389     15439     15440
     15389     15439     15441     15389     15439     15442     15440     15439     15441
     15440     15439     15442     15441     15439     15442     15439     15442     15443
     15439     15442     15444     15439     15442     15445     15443     15442     15444
     15443     15442     15445     15444     15442     15445     15442     15445     15446
     15442     15445     15447     15442     15445     15448     15446     15445     15447
     15446     15445     15448     15447     15445     15448     15445     15448     15449
     15445     15448     15450     15445     15448     15451     15449     15448     15450
     15449     15448     15451     15450     15448     15451     15448     15451     15452
     15448     15451     15453     15448     15451     15454     15452     15451     15453
     15452     15451     15454     15453     15451     15454     15451     15454     15455
     15451     15454     15456     15451     15454     15457     15455     15454     15456
     15455     15454     15457     15456     15454     15457     15454     15457     15458
     15454     15457     15459     15454     15457     15460     15458     15457     15459
     15458     15457     15460     15459     15457     15460     15457     15460     15461
     15457     15460     15462     15457     15460     15463     15461     15460     15462
     15461     15460     15463     15462     15460     15463     15460     15463     15464
     15460     15463     15465     15460     15463     15466     15464     15463     15465
     15464     15463     15466     15465     15463     15466     15463     15466     15467
     15463     15466     15468     15463     15466     15469     15467     15466     15468
     15467     15466     15469     15468     15466     15469     15466     15469     15470
     15466     15469     15471     15466     15469     15472     15470     15469     15471
     15470     15469     15472     15471     15469     15472     15469     15472     15473
     15469     15472     15474     15469     15472     15475     15473     15472     15474
     15473     15472     15475     15474     15472     15475     15472     15475     15476
     15472     15475     15477     15472     15475     15478     15476     15475     15477
     15476     15475     15478     15477     15475     15478     15475     15478     15479
     15475     15478     15480     15475     15478     15481     15479     15478     15480
     15479     15478     15481     15480     15478     15481     15483     15482     15486
     15483     15482     15490     15483     15482     15494     15486     15482     15490
     15486     15482     15494     15490     15482     15494     15482     15483     15484
     15482     15483     15485     15482     15483     15498     15484     15483     15485
     15484     15483     15498     15485     15483     15498     15482     15486     15487
     15482     15486     15488     15482     15486     15489     15487     15486     15488
     15487     15486     15489     15488     15486     15489     15482     15490     15491
     15482     15490     15492     15482     15490     15493     15491     15490     15492
     15491     15490     15493     15492     15490     15493     15482     15494     15495
     15482     15494     15496     15482     15494     15497     15495     15494     15496
     15495     15494     15497     15496     15494     15497     15483     15498     15499
     15483     15498     15500     15483     15498     15504     15499     15498     15500
     15499     15498     15504     15500     15498     15504     15502     15501     15503
     15502     15501     15504     15502     15501     15505     15503     15501     15504
     15503     15501     15505     15504     15501     15505     15498     15504     15501
     15501     15505     15506     15505     15506     15507     15505     15506     15508
     15505     15506     15509     15507     15506     15508     15507     15506     15509
     15508     15506     15509     15506     15509     15510     15506     15509     15511
     15506     15509     15517     15510     15509     15511     15510     15509     15517
     15511     15509     15517     15509     15511     15512     15511     15512     15513
     15511     15512     15514     15513     15512     15514     15512     15514     15515
     15512     15514     15516     15512     15514     15526     15515     15514     15516
     15515     15514     15526     15516     15514     15526     15509     15517     15518
     15509     15517     15519     15509     15517     15520     15518     15517     15519
     15518     15517     15520     15519     15517     15520     15517     15520     15521
     15520     15521     15522     15520     15521     15523     15522     15521     15523
     15521     15523     15524     15521     15523     15525     15521     15523     15573
     15524     15523     15525     15524     15523     15573     15525     15523     15573
     15514     15526     15527     15514     15526     15528     15514     15526     15529
     15527     15526     15528     15527     15526     15529     15528     15526     15529
     15526     15529     15530     15526     15529     15531     15526     15529     15532
     15530     15529     15531     15530     15529     15532     15531     15529     15532
     15529     15532     15533     15529     15532     15534     15529     15532     15535
     15533     15532     15534     15533     15532     15535     15534     15532     15535
     15532     15535     15536     15532     15535     15537     15532     15535     15538
     15536     15535     15537     15536     15535     15538     15537     15535     15538
     15535     15538     15539     15535     15538     15540     15535     15538     15541
     15539     15538     15540     15539     15538     15541     15540     15538     15541
     15538     15541     15542     15538     15541     15543     15538     15541     15544
     15542     15541     15543     15542     15541     15544     15543     15541     15544
     15541     15544     15545     15541     15544     15546     15545     15544     15546
     15544     15546     15547     15544     15546     15548     15547     15546     15548
     15546     15548     15549     15546     15548     15550     15546     15548     15551
     15549     15548     15550     15549     15548     15551     15550     15548     15551
     15548     15551     15552     15548     15551     15553     15548     15551     15554
     15552     15551     15553     15552     15551     15554     15553     15551     15554
     15551     15554     15555     15551     15554     15556     15551     15554     15557
     15555     15554     15556     15555     15554     15557     15556     15554     15557
     15554     15557     15558     15554     15557     15559     15554     15557     15560
     15558     15557     15559     15558     15557     15560     15559     15557     15560
     15557     15560     15561     15557     15560     15562     15557     15560     15563
     15561     15560     15562     15561     15560     15563     15562     15560     15563
     15560     15563     15564     15560     15563     15565     15560     15563     15566
     15564     15563     15565     15564     15563     15566     15565     15563     15566
     15563     15566     15567     15563     15566     15568     15563     15566     15569
     15567     15566     15568     15567     15566     15569     15568     15566     15569
     15566     15569     15570     15566     15569     15571     15566     15569     15572
     15570     15569     15571     15570     15569     15572     15571     15569     15572
     15523     15573     15574     15523     15573     15575     15523     15573     15576
     15574     15573     15575     15574     15573     15576     15575     15573     15576
     15573     15576     15577     15573     15576     15578     15573     15576     15579
     15577     15576     15578     15577     15576     15579     15578     15576     15579
     15576     15579     15580     15576     15579     15581     15576     15579     15582
     15580     15579     15581     15580     15579     15582     15581     15579     15582
     15579     15582     15583     15579     15582     15584     15579     15582     15585
     15583     15582     15584     15583     15582     15585     15584     15582     15585
     15582     15585     15586     15582     15585     15587     15582     15585     15588
     15586     15585     15587     15586     15585     15588     15587     15585     15588
     15585     15588     15589     15585     15588     15590     15585     15588     15591
     15589     15588     15590     15589     15588     15591     15590     15588     15591
     15588     15591     15592     15588     15591     15593     15588     15591     15594
     15592     15591     15593     15592     15591     15594     15593     15591     15594
     15591     15594     15595     15591     15594     15596     15591     15594     15597
     15595     15594     15596     15595     15594     15597     15596     15594     15597
     15594     15597     15598     15594     15597     15599     15594     15597     15600
     15598     15597     15599     15598     15597     15600     15599     15597     15600
     15597     15600     15601     15597     15600     15602     15597     15600     15603
     15601     15600     15602     15601     15600     15603     15602     15600     15603
     15600     15603     15604     15600     15603     15605     15600     15603     15606
     15604     15603     15605     15604     15603     15606     15605     15603     15606
     15603     15606     15607     15603     15606     15608     15603     15606     15609
     15607     15606     15608     15607     15606     15609     15608     15606     15609
     15606     15609     15610     15606     15609     15611     15606     15609     15612
     15610     15609     15611     15610     15609     15612     15611     15609     15612
     15609     15612     15613     15609     15612     15614     15609     15612     15615
     15613     15612     15614     15613     15612     15615     15614     15612     15615
     15617     15616     15618     15617     15616     15619     15617     15616     15620
     15618     15616     15619     15618     15616     15620     15619     15616     15620
     15616     15620     15621     15616     15620     15622     15616     15620     15625
     15621     15620     15622     15621     15620     15625     15622     15620     15625
     15620     15622     15623     15620     15622     15624     15623     15622     15624
     15620     15625     15626     15620     15625     15627     15620     15625     15631
     15626     15625     15627     15626     15625     15631     15627     15625     15631
     15629     15628     15630     15629     15628     15631     15629     15628     15632
     15630     15628     15631     15630     15628     15632     15631     15628     15632
     15625     15631     15628     15628     15632     15633     15632     15633     15634
     15632     15633     15635     15632     15633     15636     15634     15633     15635
     15634     15633     15636     15635     15633     15636     15633     15636     15637
     15633     15636     15638     15633     15636     15644     15637     15636     15638
     15637     15636     15644     15638     15636     15644     15636     15638     15639
     15638     15639     15640     15638     15639     15641     15640     15639     15641
     15639     15641     15642     15639     15641     15643     15639     15641     15653
     15642     15641     15643     15642     15641     15653     15643     15641     15653
     15636     15644     15645     15636     15644     15646     15636     15644     15647
     15645     15644     15646     15645     15644     15647     15646     15644     15647
     15644     15647     15648     15647     15648     15649     15647     15648     15650
     15649     15648     15650     15648     15650     15651     15648     15650     15652
     15648     15650     15700     15651     15650     15652     15651     15650     15700
     15652     15650     15700     15641     15653     15654     15641     15653     15655
     15641     15653     15656     15654     15653     15655     15654     15653     15656
     15655     15653     15656     15653     15656     15657     15653     15656     15658
     15653     15656     15659     15657     15656     15658     15657     15656     15659
     15658     15656     15659     15656     15659     15660     15656     15659     15661
     15656     15659     15662     15660     15659     15661     15660     15659     15662
     15661     15659     15662     15659     15662     15663     15659     15662     15664
     15659     15662     15665     15663     15662     15664     15663     15662     15665
     15664     15662     15665     15662     15665     15666     15662     15665     15667
     15662     15665     15668     15666     15665     15667     15666     15665     15668
     15667     15665     15668     15665     15668     15669     15665     15668     15670
     15665     15668     15671     15669     15668     15670     15669     15668     15671
     15670     15668     15671     15668     15671     15672     15668     15671     15673
     15672     15671     15673     15671     15673     15674     15671     15673     15675
     15674     15673     15675     15673     15675     15676     15673     15675     15677
     15673     15675     15678     15676     15675     15677     15676     15675     15678
     15677     15675     15678     15675     15678     15679     15675     15678     15680
     15675     15678     15681     15679     15678     15680     15679     15678     15681
     15680     15678     15681     15678     15681     15682     15678     15681     15683
     15678     15681     15684     15682     15681     15683     15682     15681     15684
     15683     15681     15684     15681     15684     15685     15681     15684     15686
     15681     15684     15687     15685     15684     15686     15685     15684     15687
     15686     15684     15687     15684     15687     15688     15684     15687     15689
     15684     15687     15690     15688     15687     15689     15688     15687     15690
     15689     15687     15690     15687     15690     15691     15687     15690     15692
     15687     15690     15693     15691     15690     15692     15691     15690     15693
     15692     15690     15693     15690     15693     15694     15690     15693     15695
     15690     15693     15696     15694     15693     15695     15694     15693     15696
     15695     15693     15696     15693     15696     15697     15693     15696     15698
     15693     15696     15699     15697     15696     15698     15697     15696     15699
     15698     15696     15699     15650     15700     15701     15650     15700     15702
     15650     15700     15703     15701     15700     15702     15701     15700     15703
     15702     15700     15703     15700     15703     15704     15700     15703     15705
     15700     15703     15706     15704     15703     15705     15704     15703     15706
     15705     15703     15706     15703     15706     15707     15703     15706     15708
     15703     15706     15709     15707     15706     15708     15707     15706     15709
     15708     15706     15709     15706     15709     15710     15706     15709     15711
     15706     15709     15712     15710     15709     15711     15710     15709     15712
     15711     15709     15712     15709     15712     15713     15709     15712     15714
     15709     15712     15715     15713     15712     15714     15713     15712     15715
     15714     15712     15715     15712     15715     15716     15712     15715     15717
     15712     15715     15718     15716     15715     15717     15716     15715     15718
     15717     15715     15718     15715     15718     15719     15715     15718     15720
     15715     15718     15721     15719     15718     15720     15719     15718     15721
     15720     15718     15721     15718     15721     15722     15718     15721     15723
     15718     15721     15724     15722     15721     15723     15722     15721     15724
     15723     15721     15724     15721     15724     15725     15721     15724     15726
     15721     15724     15727     15725     15724     15726     15725     15724     15727
     15726     15724     15727     15724     15727     15728     15724     15727     15729
     15724     15727     15730     15728     15727     15729     15728     15727     15730
     15729     15727     15730     15727     15730     15731     15727     15730     15732
     15727     15730     15733     15731     15730     15732     15731     15730     15733
     15732     15730     15733     15730     15733     15734     15730     15733     15735
     15730     15733     15736     15734     15733     15735     15734     15733     15736
     15735     15733     15736     15733     15736     15737     15733     15736     15738
     15733     15736     15739     15737     15736     15738     15737     15736     15739
     15738     15736     15739     15736     15739     15740     15736     15739     15741
     15736     15739     15742     15740     15739     15741     15740     15739     15742
     15741     15739     15742     15744     15743     15747     15744     15743     15751
     15744     15743     15755     15747     15743     15751     15747     15743     15755
     15751     15743     15755     15743     15744     15745     15743     15744     15746
     15743     15744     15759     15745     15744     15746     15745     15744     15759
     15746     15744     15759     15743     15747     15748     15743     15747     15749
     15743     15747     15750     15748     15747     15749     15748     15747     15750
     15749     15747     15750     15743     15751     15752     15743     15751     15753
     15743     15751     15754     15752     15751     15753     15752     15751     15754
     15753     15751     15754     15743     15755     15756     15743     15755     15757
     15743     15755     15758     15756     15755     15757     15756     15755     15758
     15757     15755     15758     15744     15759     15760     15744     15759     15761
     15744     15759     15765     15760     15759     15761     15760     15759     15765
     15761     15759     15765     15763     15762     15764     15763     15762     15765
     15763     15762     15766     15764     15762     15765     15764     15762     15766
     15765     15762     15766     15759     15765     15762     15762     15766     15767
     15766     15767     15768     15766     15767     15769     15766     15767     15770
     15768     15767     15769     15768     15767     15770     15769     15767     15770
     15767     15770     15771     15767     15770     15772     15767     15770     15778
     15771     15770     15772     15771     15770     15778     15772     15770     15778
     15770     15772     15773     15772     15773     15774     15772     15773     15775
     15774     15773     15775     15773     15775     15776     15773     15775     15777
     15773     15775     15787     15776     15775     15777     15776     15775     15787
     15777     15775     15787     15770     15778     15779     15770     15778     15780
     15770     15778     15781     15779     15778     15780     15779     15778     15781
     15780     15778     15781     15778     15781     15782     15781     15782     15783
     15781     15782     15784     15783     15782     15784     15782     15784     15785
     15782     15784     15786     15782     15784     15834     15785     15784     15786
     15785     15784     15834     15786     15784     15834     15775     15787     15788
     15775     15787     15789     15775     15787     15790     15788     15787     15789
     15788     15787     15790     15789     15787     15790     15787     15790     15791
     15787     15790     15792     15787     15790     15793     15791     15790     15792
     15791     15790     15793     15792     15790     15793     15790     15793     15794
     15790     15793     15795     15790     15793     15796     15794     15793     15795
     15794     15793     15796     15795     15793     15796     15793     15796     15797
     15793     15796     15798     15793     15796     15799     15797     15796     15798
     15797     15796     15799     15798     15796     15799     15796     15799     15800
     15796     15799     15801     15796     15799     15802     15800     15799     15801
     15800     15799     15802     15801     15799     15802     15799     15802     15803
     15799     15802     15804     15799     15802     15805     15803     15802     15804
     15803     15802     15805     15804     15802     15805     15802     15805     15806
     15802     15805     15807     15806     15805     15807     15805     15807     15808
     15805     15807     15809     15808     15807     15809     15807     15809     15810
     15807     15809     15811     15807     15809     15812     15810     15809     15811
     15810     15809     15812     15811     15809     15812     15809     15812     15813
     15809     15812     15814     15809     15812     15815     15813     15812     15814
     15813     15812     15815     15814     15812     15815     15812     15815     15816
     15812     15815     15817     15812     15815     15818     15816     15815     15817
     15816     15815     15818     15817     15815     15818     15815     15818     15819
     15815     15818     15820     15815     15818     15821     15819     15818     15820
     15819     15818     15821     15820     15818     15821     15818     15821     15822
     15818     15821     15823     15818     15821     15824     15822     15821     15823
     15822     15821     15824     15823     15821     15824     15821     15824     15825
     15821     15824     15826     15821     15824     15827     15825     15824     15826
     15825     15824     15827     15826     15824     15827     15824     15827     15828
     15824     15827     15829     15824     15827     15830     15828     15827     15829
     15828     15827     15830     15829     15827     15830     15827     15830     15831
     15827     15830     15832     15827     15830     15833     15831     15830     15832
     15831     15830     15833     15832     15830     15833     15784     15834     15835
     15784     15834     15836     15784     15834     15837     15835     15834     15836
     15835     15834     15837     15836     15834     15837     15834     15837     15838
     15834     15837     15839     15834     15837     15840     15838     15837     15839
     15838     15837     15840     15839     15837     15840     15837     15840     15841
     15837     15840     15842     15837     15840     15843     15841     15840     15842
     15841     15840     15843     15842     15840     15843     15840     15843     15844
     15840     15843     15845     15840     15843     15846     15844     15843     15845
     15844     15843     15846     15845     15843     15846     15843     15846     15847
     15843     15846     15848     15843     15846     15849     15847     15846     15848
     15847     15846     15849     15848     15846     15849     15846     15849     15850
     15846     15849     15851     15846     15849     15852     15850     15849     15851
     15850     15849     15852     15851     15849     15852     15849     15852     15853
     15849     15852     15854     15849     15852     15855     15853     15852     15854
     15853     15852     15855     15854     15852     15855     15852     15855     15856
     15852     15855     15857     15852     15855     15858     15856     15855     15857
     15856     15855     15858     15857     15855     15858     15855     15858     15859
     15855     15858     15860     15855     15858     15861     15859     15858     15860
     15859     15858     15861     15860     15858     15861     15858     15861     15862
     15858     15861     15863     15858     15861     15864     15862     15861     15863
     15862     15861     15864     15863     15861     15864     15861     15864     15865
     15861     15864     15866     15861     15864     15867     15865     15864     15866
     15865     15864     15867     15866     15864     15867     15864     15867     15868
     15864     15867     15869     15864     15867     15870     15868     15867     15869
     15868     15867     15870     15869     15867     15870     15867     15870     15871
     15867     15870     15872     15867     15870     15873     15871     15870     15872
     15871     15870     15873     15872     15870     15873     15870     15873     15874
     15870     15873     15875     15870     15873     15876     15874     15873     15875
     15874     15873     15876     15875     15873     15876     15878     15877     15881
     15878     15877     15885     15878     15877     15889     15881     15877     15885
     15881     15877     15889     15885     15877     15889     15877     15878     15879
     15877     15878     15880     15877     15878     15893     15879     15878     15880
     15879     15878     15893     15880     15878     15893     15877     15881     15882
     15877     15881     15883     15877     15881     15884     15882     15881     15883
     15882     15881     15884     15883     15881     15884     15877     15885     15886
     15877     15885     15887     15877     15885     15888     15886     15885     15887
     15886     15885     15888     15887     15885     15888     15877     15889     15890
     15877     15889     15891     15877     15889     15892     15890     15889     15891
     15890     15889     15892     15891     15889     15892     15878     15893     15894
     15878     15893     15895     15878     15893     15899     15894     15893     15895
     15894     15893     15899     15895     15893     15899     15897     15896     15898
     15897     15896     15899     15897     15896     15900     15898     15896     15899
     15898     15896     15900     15899     15896     15900     15893     15899     15896
     15896     15900     15901     15900     15901     15902     15900     15901     15903
     15900     15901     15904     15902     15901     15903     15902     15901     15904
     15903     15901     15904     15901     15904     15905     15901     15904     15906
     15901     15904     15912     15905     15904     15906     15905     15904     15912
     15906     15904     15912     15904     15906     15907     15906     15907     15908
     15906     15907     15909     15908     15907     15909     15907     15909     15910
     15907     15909     15911     15907     15909     15921     15910     15909     15911
     15910     15909     15921     15911     15909     15921     15904     15912     15913
     15904     15912     15914     15904     15912     15915     15913     15912     15914
     15913     15912     15915     15914     15912     15915     15912     15915     15916
     15915     15916     15917     15915     15916     15918     15917     15916     15918
     15916     15918     15919     15916     15918     15920     15916     15918     15968
     15919     15918     15920     15919     15918     15968     15920     15918     15968
     15909     15921     15922     15909     15921     15923     15909     15921     15924
     15922     15921     15923     15922     15921     15924     15923     15921     15924
     15921     15924     15925     15921     15924     15926     15921     15924     15927
     15925     15924     15926     15925     15924     15927     15926     15924     15927
     15924     15927     15928     15924     15927     15929     15924     15927     15930
     15928     15927     15929     15928     15927     15930     15929     15927     15930
     15927     15930     15931     15927     15930     15932     15927     15930     15933
     15931     15930     15932     15931     15930     15933     15932     15930     15933
     15930     15933     15934     15930     15933     15935     15930     15933     15936
     15934     15933     15935     15934     15933     15936     15935     15933     15936
     15933     15936     15937     15933     15936     15938     15933     15936     15939
     15937     15936     15938     15937     15936     15939     15938     15936     15939
     15936     15939     15940     15936     15939     15941     15940     15939     15941
     15939     15941     15942     15939     15941     15943     15942     15941     15943
     15941     15943     15944     15941     15943     15945     15941     15943     15946
     15944     15943     15945     15944     15943     15946     15945     15943     15946
     15943     15946     15947     15943     15946     15948     15943     15946     15949
     15947     15946     15948     15947     15946     15949     15948     15946     15949
     15946     15949     15950     15946     15949     15951     15946     15949     15952
     15950     15949     15951     15950     15949     15952     15951     15949     15952
     15949     15952     15953     15949     15952     15954     15949     15952     15955
     15953     15952     15954     15953     15952     15955     15954     15952     15955
     15952     15955     15956     15952     15955     15957     15952     15955     15958
     15956     15955     15957     15956     15955     15958     15957     15955     15958
     15955     15958     15959     15955     15958     15960     15955     15958     15961
     15959     15958     15960     15959     15958     15961     15960     15958     15961
     15958     15961     15962     15958     15961     15963     15958     15961     15964
     15962     15961     15963     15962     15961     15964     15963     15961     15964
     15961     15964     15965     15961     15964     15966     15961     15964     15967
     15965     15964     15966     15965     15964     15967     15966     15964     15967
     15918     15968     15969     15918     15968     15970     15918     15968     15971
     15969     15968     15970     15969     15968     15971     15970     15968     15971
     15968     15971     15972     15968     15971     15973     15968     15971     15974
     15972     15971     15973     15972     15971     15974     15973     15971     15974
     15971     15974     15975     15971     15974     15976     15971     15974     15977
     15975     15974     15976     15975     15974     15977     15976     15974     15977
     15974     15977     15978     15974     15977     15979     15974     15977     15980
     15978     15977     15979     15978     15977     15980     15979     15977     15980
     15977     15980     15981     15977     15980     15982     15977     15980     15983
     15981     15980     15982     15981     15980     15983     15982     15980     15983
     15980     15983     15984     15980     15983     15985     15980     15983     15986
     15984     15983     15985     15984     15983     15986     15985     15983     15986
     15983     15986     15987     15983     15986     15988     15983     15986     15989
     15987     15986     15988     15987     15986     15989     15988     15986     15989
     15986     15989     15990     15986     15989     15991     15986     15989     15992
     15990     15989     15991     15990     15989     15992     15991     15989     15992
     15989     15992     15993     15989     15992     15994     15989     15992     15995
     15993     15992     15994     15993     15992     15995     15994     15992     15995
     15992     15995     15996     15992     15995     15997     15992     15995     15998
     15996     15995     15997     15996     15995     15998     15997     15995     15998
     15995     15998     15999     15995     15998     16000     15995     15998     16001
     15999     15998     16000     15999     15998     16001     16000     15998     16001
     15998     16001     16002     15998     16001     16003     15998     16001     16004
     16002     16001     16003     16002     16001     16004     16003     16001     16004
     16001     16004     16005     16001     16004     16006     16001     16004     16007
     16005     16004     16006     16005     16004     16007     16006     16004     16007
     16004     16007     16008     16004     16007     16009     16004     16007     16010
     16008     16007     16009     16008     16007     16010     16009     16007     16010
     16012     16011     16015     16012     16011     16019     16012     16011     16023
     16015     16011     16019     16015     16011     16023     16019     16011     16023
     16011     16012     16013     16011     16012     16014     16011     16012     16027
     16013     16012     16014     16013     16012     16027     16014     16012     16027
     16011     16015     16016     16011     16015     16017     16011     16015     16018
     16016     16015     16017     16016     16015     16018     16017     16015     16018
     16011     16019     16020     16011     16019     16021     16011     16019     16022
     16020     16019     16021     16020     16019     16022     16021     16019     16022
     16011     16023     16024     16011     16023     16025     16011     16023     16026
     16024     16023     16025     16024     16023     16026     16025     16023     16026
     16012     16027     16028     16012     16027     16029     16012     16027     16033
     16028     16027     16029     16028     16027     16033     16029     16027     16033
     16031     16030     16032     16031     16030     16033     16031     16030     16034
     16032     16030     16033     16032     16030     16034     16033     16030     16034
     16027     16033     16030     16030     16034     16035     16034     16035     16036
     16034     16035     16037     16034     16035     16038     16036     16035     16037
     16036     16035     16038     16037     16035     16038     16035     16038     16039
     16035     16038     16040     16035     16038     16046     16039     16038     16040
     16039     16038     16046     16040     16038     16046     16038     16040     16041
     16040     16041     16042     16040     16041     16043     16042     16041     16043
     16041     16043     16044     16041     16043     16045     16041     16043     16055
     16044     16043     16045     16044     16043     16055     16045     16043     16055
     16038     16046     16047     16038     16046     16048     16038     16046     16049
     16047     16046     16048     16047     16046     16049     16048     16046     16049
     16046     16049     16050     16049     16050     16051     16049     16050     16052
     16051     16050     16052     16050     16052     16053     16050     16052     16054
     16050     16052     16102     16053     16052     16054     16053     16052     16102
     16054     16052     16102     16043     16055     16056     16043     16055     16057
     16043     16055     16058     16056     16055     16057     16056     16055     16058
     16057     16055     16058     16055     16058     16059     16055     16058     16060
     16055     16058     16061     16059     16058     16060     16059     16058     16061
     16060     16058     16061     16058     16061     16062     16058     16061     16063
     16058     16061     16064     16062     16061     16063     16062     16061     16064
     16063     16061     16064     16061     16064     16065     16061     16064     16066
     16061     16064     16067     16065     16064     16066     16065     16064     16067
     16066     16064     16067     16064     16067     16068     16064     16067     16069
     16064     16067     16070     16068     16067     16069     16068     16067     16070
     16069     16067     16070     16067     16070     16071     16067     16070     16072
     16067     16070     16073     16071     16070     16072     16071     16070     16073
     16072     16070     16073     16070     16073     16074     16070     16073     16075
     16074     16073     16075     16073     16075     16076     16073     16075     16077
     16076     16075     16077     16075     16077     16078     16075     16077     16079
     16075     16077     16080     16078     16077     16079     16078     16077     16080
     16079     16077     16080     16077     16080     16081     16077     16080     16082
     16077     16080     16083     16081     16080     16082     16081     16080     16083
     16082     16080     16083     16080     16083     16084     16080     16083     16085
     16080     16083     16086     16084     16083     16085     16084     16083     16086
     16085     16083     16086     16083     16086     16087     16083     16086     16088
     16083     16086     16089     16087     16086     16088     16087     16086     16089
     16088     16086     16089     16086     16089     16090     16086     16089     16091
     16086     16089     16092     16090     16089     16091     16090     16089     16092
     16091     16089     16092     16089     16092     16093     16089     16092     16094
     16089     16092     16095     16093     16092     16094     16093     16092     16095
     16094     16092     16095     16092     16095     16096     16092     16095     16097
     16092     16095     16098     16096     16095     16097     16096     16095     16098
     16097     16095     16098     16095     16098     16099     16095     16098     16100
     16095     16098     16101     16099     16098     16100     16099     16098     16101
     16100     16098     16101     16052     16102     16103     16052     16102     16104
     16052     16102     16105     16103     16102     16104     16103     16102     16105
     16104     16102     16105     16102     16105     16106     16102     16105     16107
     16102     16105     16108     16106     16105     16107     16106     16105     16108
     16107     16105     16108     16105     16108     16109     16105     16108     16110
     16105     16108     16111     16109     16108     16110     16109     16108     16111
     16110     16108     16111     16108     16111     16112     16108     16111     16113
     16108     16111     16114     16112     16111     16113     16112     16111     16114
     16113     16111     16114     16111     16114     16115     16111     16114     16116
     16111     16114     16117     16115     16114     16116     16115     16114     16117
     16116     16114     16117     16114     16117     16118     16114     16117     16119
     16114     16117     16120     16118     16117     16119     16118     16117     16120
     16119     16117     16120     16117     16120     16121     16117     16120     16122
     16117     16120     16123     16121     16120     16122     16121     16120     16123
     16122     16120     16123     16120     16123     16124     16120     16123     16125
     16120     16123     16126     16124     16123     16125     16124     16123     16126
     16125     16123     16126     16123     16126     16127     16123     16126     16128
     16123     16126     16129     16127     16126     16128     16127     16126     16129
     16128     16126     16129     16126     16129     16130     16126     16129     16131
     16126     16129     16132     16130     16129     16131     16130     16129     16132
     16131     16129     16132     16129     16132     16133     16129     16132     16134
     16129     16132     16135     16133     16132     16134     16133     16132     16135
     16134     16132     16135     16132     16135     16136     16132     16135     16137
     16132     16135     16138     16136     16135     16137     16136     16135     16138
     16137     16135     16138     16135     16138     16139     16135     16138     16140
     16135     16138     16141     16139     16138     16140     16139     16138     16141
     16140     16138     16141     16138     16141     16142     16138     16141     16143
     16138     16141     16144     16142     16141     16143     16142     16141     16144
     16143     16141     16144     16146     16145     16149     16146     16145     16153
     16146     16145     16157     16149     16145     16153     16149     16145     16157
     16153     16145     16157     16145     16146     16147     16145     16146     16148
     16145     16146     16161     16147     16146     16148     16147     16146     16161
     16148     16146     16161     16145     16149     16150     16145     16149     16151
     16145     16149     16152     16150     16149     16151     16150     16149     16152
     16151     16149     16152     16145     16153     16154     16145     16153     16155
     16145     16153     16156     16154     16153     16155     16154     16153     16156
     16155     16153     16156     16145     16157     16158     16145     16157     16159
     16145     16157     16160     16158     16157     16159     16158     16157     16160
     16159     16157     16160     16146     16161     16162     16146     16161     16163
     16146     16161     16167     16162     16161     16163     16162     16161     16167
     16163     16161     16167     16165     16164     16166     16165     16164     16167
     16165     16164     16168     16166     16164     16167     16166     16164     16168
     16167     16164     16168     16161     16167     16164     16164     16168     16169
     16168     16169     16170     16168     16169     16171     16168     16169     16172
     16170     16169     16171     16170     16169     16172     16171     16169     16172
     16169     16172     16173     16169     16172     16174     16169     16172     16180
     16173     16172     16174     16173     16172     16180     16174     16172     16180
     16172     16174     16175     16174     16175     16176     16174     16175     16177
     16176     16175     16177     16175     16177     16178     16175     16177     16179
     16175     16177     16189     16178     16177     16179     16178     16177     16189
     16179     16177     16189     16172     16180     16181     16172     16180     16182
     16172     16180     16183     16181     16180     16182     16181     16180     16183
     16182     16180     16183     16180     16183     16184     16183     16184     16185
     16183     16184     16186     16185     16184     16186     16184     16186     16187
     16184     16186     16188     16184     16186     16236     16187     16186     16188
     16187     16186     16236     16188     16186     16236     16177     16189     16190
     16177     16189     16191     16177     16189     16192     16190     16189     16191
     16190     16189     16192     16191     16189     16192     16189     16192     16193
     16189     16192     16194     16189     16192     16195     16193     16192     16194
     16193     16192     16195     16194     16192     16195     16192     16195     16196
     16192     16195     16197     16192     16195     16198     16196     16195     16197
     16196     16195     16198     16197     16195     16198     16195     16198     16199
     16195     16198     16200     16195     16198     16201     16199     16198     16200
     16199     16198     16201     16200     16198     16201     16198     16201     16202
     16198     16201     16203     16198     16201     16204     16202     16201     16203
     16202     16201     16204     16203     16201     16204     16201     16204     16205
     16201     16204     16206     16201     16204     16207     16205     16204     16206
     16205     16204     16207     16206     16204     16207     16204     16207     16208
     16204     16207     16209     16208     16207     16209     16207     16209     16210
     16207     16209     16211     16210     16209     16211     16209     16211     16212
     16209     16211     16213     16209     16211     16214     16212     16211     16213
     16212     16211     16214     16213     16211     16214     16211     16214     16215
     16211     16214     16216     16211     16214     16217     16215     16214     16216
     16215     16214     16217     16216     16214     16217     16214     16217     16218
     16214     16217     16219     16214     16217     16220     16218     16217     16219
     16218     16217     16220     16219     16217     16220     16217     16220     16221
     16217     16220     16222     16217     16220     16223     16221     16220     16222
     16221     16220     16223     16222     16220     16223     16220     16223     16224
     16220     16223     16225     16220     16223     16226     16224     16223     16225
     16224     16223     16226     16225     16223     16226     16223     16226     16227
     16223     16226     16228     16223     16226     16229     16227     16226     16228
     16227     16226     16229     16228     16226     16229     16226     16229     16230
     16226     16229     16231     16226     16229     16232     16230     16229     16231
     16230     16229     16232     16231     16229     16232     16229     16232     16233
     16229     16232     16234     16229     16232     16235     16233     16232     16234
     16233     16232     16235     16234     16232     16235     16186     16236     16237
     16186     16236     16238     16186     16236     16239     16237     16236     16238
     16237     16236     16239     16238     16236     16239     16236     16239     16240
     16236     16239     16241     16236     16239     16242     16240     16239     16241
     16240     16239     16242     16241     16239     16242     16239     16242     16243
     16239     16242     16244     16239     16242     16245     16243     16242     16244
     16243     16242     16245     16244     16242     16245     16242     16245     16246
     16242     16245     16247     16242     16245     16248     16246     16245     16247
     16246     16245     16248     16247     16245     16248     16245     16248     16249
     16245     16248     16250     16245     16248     16251     16249     16248     16250
     16249     16248     16251     16250     16248     16251     16248     16251     16252
     16248     16251     16253     16248     16251     16254     16252     16251     16253
     16252     16251     16254     16253     16251     16254     16251     16254     16255
     16251     16254     16256     16251     16254     16257     16255     16254     16256
     16255     16254     16257     16256     16254     16257     16254     16257     16258
     16254     16257     16259     16254     16257     16260     16258     16257     16259
     16258     16257     16260     16259     16257     16260     16257     16260     16261
     16257     16260     16262     16257     16260     16263     16261     16260     16262
     16261     16260     16263     16262     16260     16263     16260     16263     16264
     16260     16263     16265     16260     16263     16266     16264     16263     16265
     16264     16263     16266     16265     16263     16266     16263     16266     16267
     16263     16266     16268     16263     16266     16269     16267     16266     16268
     16267     16266     16269     16268     16266     16269     16266     16269     16270
     16266     16269     16271     16266     16269     16272     16270     16269     16271
     16270     16269     16272     16271     16269     16272     16269     16272     16273
     16269     16272     16274     16269     16272     16275     16273     16272     16274
     16273     16272     16275     16274     16272     16275     16272     16275     16276
     16272     16275     16277     16272     16275     16278     16276     16275     16277
     16276     16275     16278     16277     16275     16278     16280     16279     16283
     16280     16279     16287     16280     16279     16291     16283     16279     16287
     16283     16279     16291     16287     16279     16291     16279     16280     16281
     16279     16280     16282     16279     16280     16295     16281     16280     16282
     16281     16280     16295     16282     16280     16295     16279     16283     16284
     16279     16283     16285     16279     16283     16286     16284     16283     16285
     16284     16283     16286     16285     16283     16286     16279     16287     16288
     16279     16287     16289     16279     16287     16290     16288     16287     16289
     16288     16287     16290     16289     16287     16290     16279     16291     16292
     16279     16291     16293     16279     16291     16294     16292     16291     16293
     16292     16291     16294     16293     16291     16294     16280     16295     16296
     16280     16295     16297     16280     16295     16301     16296     16295     16297
     16296     16295     16301     16297     16295     16301     16299     16298     16300
     16299     16298     16301     16299     16298     16302     16300     16298     16301
     16300     16298     16302     16301     16298     16302     16295     16301     16298
     16298     16302     16303     16302     16303     16304     16302     16303     16305
     16302     16303     16306     16304     16303     16305     16304     16303     16306
     16305     16303     16306     16303     16306     16307     16303     16306     16308
     16303     16306     16314     16307     16306     16308     16307     16306     16314
     16308     16306     16314     16306     16308     16309     16308     16309     16310
     16308     16309     16311     16310     16309     16311     16309     16311     16312
     16309     16311     16313     16309     16311     16323     16312     16311     16313
     16312     16311     16323     16313     16311     16323     16306     16314     16315
     16306     16314     16316     16306     16314     16317     16315     16314     16316
     16315     16314     16317     16316     16314     16317     16314     16317     16318
     16317     16318     16319     16317     16318     16320     16319     16318     16320
     16318     16320     16321     16318     16320     16322     16318     16320     16370
     16321     16320     16322     16321     16320     16370     16322     16320     16370
     16311     16323     16324     16311     16323     16325     16311     16323     16326
     16324     16323     16325     16324     16323     16326     16325     16323     16326
     16323     16326     16327     16323     16326     16328     16323     16326     16329
     16327     16326     16328     16327     16326     16329     16328     16326     16329
     16326     16329     16330     16326     16329     16331     16326     16329     16332
     16330     16329     16331     16330     16329     16332     16331     16329     16332
     16329     16332     16333     16329     16332     16334     16329     16332     16335
     16333     16332     16334     16333     16332     16335     16334     16332     16335
     16332     16335     16336     16332     16335     16337     16332     16335     16338
     16336     16335     16337     16336     16335     16338     16337     16335     16338
     16335     16338     16339     16335     16338     16340     16335     16338     16341
     16339     16338     16340     16339     16338     16341     16340     16338     16341
     16338     16341     16342     16338     16341     16343     16342     16341     16343
     16341     16343     16344     16341     16343     16345     16344     16343     16345
     16343     16345     16346     16343     16345     16347     16343     16345     16348
     16346     16345     16347     16346     16345     16348     16347     16345     16348
     16345     16348     16349     16345     16348     16350     16345     16348     16351
     16349     16348     16350     16349     16348     16351     16350     16348     16351
     16348     16351     16352     16348     16351     16353     16348     16351     16354
     16352     16351     16353     16352     16351     16354     16353     16351     16354
     16351     16354     16355     16351     16354     16356     16351     16354     16357
     16355     16354     16356     16355     16354     16357     16356     16354     16357
     16354     16357     16358     16354     16357     16359     16354     16357     16360
     16358     16357     16359     16358     16357     16360     16359     16357     16360
     16357     16360     16361     16357     16360     16362     16357     16360     16363
     16361     16360     16362     16361     16360     16363     16362     16360     16363
     16360     16363     16364     16360     16363     16365     16360     16363     16366
     16364     16363     16365     16364     16363     16366     16365     16363     16366
     16363     16366     16367     16363     16366     16368     16363     16366     16369
     16367     16366     16368     16367     16366     16369     16368     16366     16369
     16320     16370     16371     16320     16370     16372     16320     16370     16373
     16371     16370     16372     16371     16370     16373     16372     16370     16373
     16370     16373     16374     16370     16373     16375     16370     16373     16376
     16374     16373     16375     16374     16373     16376     16375     16373     16376
     16373     16376     16377     16373     16376     16378     16373     16376     16379
     16377     16376     16378     16377     16376     16379     16378     16376     16379
     16376     16379     16380     16376     16379     16381     16376     16379     16382
     16380     16379     16381     16380     16379     16382     16381     16379     16382
     16379     16382     16383     16379     16382     16384     16379     16382     16385
     16383     16382     16384     16383     16382     16385     16384     16382     16385
     16382     16385     16386     16382     16385     16387     16382     16385     16388
     16386     16385     16387     16386     16385     16388     16387     16385     16388
     16385     16388     16389     16385     16388     16390     16385     16388     16391
     16389     16388     16390     16389     16388     16391     16390     16388     16391
     16388     16391     16392     16388     16391     16393     16388     16391     16394
     16392     16391     16393     16392     16391     16394     16393     16391     16394
     16391     16394     16395     16391     16394     16396     16391     16394     16397
     16395     16394     16396     16395     16394     16397     16396     16394     16397
     16394     16397     16398     16394     16397     16399     16394     16397     16400
     16398     16397     16399     16398     16397     16400     16399     16397     16400
     16397     16400     16401     16397     16400     16402     16397     16400     16403
     16401     16400     16402     16401     16400     16403     16402     16400     16403
     16400     16403     16404     16400     16403     16405     16400     16403     16406
     16404     16403     16405     16404     16403     16406     16405     16403     16406
     16403     16406     16407     16403     16406     16408     16403     16406     16409
     16407     16406     16408     16407     16406     16409     16408     16406     16409
     16406     16409     16410     16406     16409     16411     16406     16409     16412
     16410     16409     16411     16410     16409     16412     16411     16409     16412
     16414     16413     16417     16414     16413     16421     16414     16413     16425
     16417     16413     16421     16417     16413     16425     16421     16413     16425
     16413     16414     16415     16413     16414     16416     16413     16414     16429
     16415     16414     16416     16415     16414     16429     16416     16414     16429
     16413     16417     16418     16413     16417     16419     16413     16417     16420
     16418     16417     16419     16418     16417     16420     16419     16417     16420
     16413     16421     16422     16413     16421     16423     16413     16421     16424
     16422     16421     16423     16422     16421     16424     16423     16421     16424
     16413     16425     16426     16413     16425     16427     16413     16425     16428
     16426     16425     16427     16426     16425     16428     16427     16425     16428
     16414     16429     16430     16414     16429     16431     16414     16429     16435
     16430     16429     16431     16430     16429     16435     16431     16429     16435
     16433     16432     16434     16433     16432     16435     16433     16432     16436
     16434     16432     16435     16434     16432     16436     16435     16432     16436
     16429     16435     16432     16432     16436     16437     16436     16437     16438
     16436     16437     16439     16436     16437     16440     16438     16437     16439
     16438     16437     16440     16439     16437     16440     16437     16440     16441
     16437     16440     16442     16437     16440     16448     16441     16440     16442
     16441     16440     16448     16442     16440     16448     16440     16442     16443
     16442     16443     16444     16442     16443     16445     16444     16443     16445
     16443     16445     16446     16443     16445     16447     16443     16445     16457
     16446     16445     16447     16446     16445     16457     16447     16445     16457
     16440     16448     16449     16440     16448     16450     16440     16448     16451
     16449     16448     16450     16449     16448     16451     16450     16448     16451
     16448     16451     16452     16451     16452     16453     16451     16452     16454
     16453     16452     16454     16452     16454     16455     16452     16454     16456
     16452     16454     16504     16455     16454     16456     16455     16454     16504
     16456     16454     16504     16445     16457     16458     16445     16457     16459
     16445     16457     16460     16458     16457     16459     16458     16457     16460
     16459     16457     16460     16457     16460     16461     16457     16460     16462
     16457     16460     16463     16461     16460     16462     16461     16460     16463
     16462     16460     16463     16460     16463     16464     16460     16463     16465
     16460     16463     16466     16464     16463     16465     16464     16463     16466
     16465     16463     16466     16463     16466     16467     16463     16466     16468
     16463     16466     16469     16467     16466     16468     16467     16466     16469
     16468     16466     16469     16466     16469     16470     16466     16469     16471
     16466     16469     16472     16470     16469     16471     16470     16469     16472
     16471     16469     16472     16469     16472     16473     16469     16472     16474
     16469     16472     16475     16473     16472     16474     16473     16472     16475
     16474     16472     16475     16472     16475     16476     16472     16475     16477
     16476     16475     16477     16475     16477     16478     16475     16477     16479
     16478     16477     16479     16477     16479     16480     16477     16479     16481
     16477     16479     16482     16480     16479     16481     16480     16479     16482
     16481     16479     16482     16479     16482     16483     16479     16482     16484
     16479     16482     16485     16483     16482     16484     16483     16482     16485
     16484     16482     16485     16482     16485     16486     16482     16485     16487
     16482     16485     16488     16486     16485     16487     16486     16485     16488
     16487     16485     16488     16485     16488     16489     16485     16488     16490
     16485     16488     16491     16489     16488     16490     16489     16488     16491
     16490     16488     16491     16488     16491     16492     16488     16491     16493
     16488     16491     16494     16492     16491     16493     16492     16491     16494
     16493     16491     16494     16491     16494     16495     16491     16494     16496
     16491     16494     16497     16495     16494     16496     16495     16494     16497
     16496     16494     16497     16494     16497     16498     16494     16497     16499
     16494     16497     16500     16498     16497     16499     16498     16497     16500
     16499     16497     16500     16497     16500     16501     16497     16500     16502
     16497     16500     16503     16501     16500     16502     16501     16500     16503
     16502     16500     16503     16454     16504     16505     16454     16504     16506
     16454     16504     16507     16505     16504     16506     16505     16504     16507
     16506     16504     16507     16504     16507     16508     16504     16507     16509
     16504     16507     16510     16508     16507     16509     16508     16507     16510
     16509     16507     16510     16507     16510     16511     16507     16510     16512
     16507     16510     16513     16511     16510     16512     16511     16510     16513
     16512     16510     16513     16510     16513     16514     16510     16513     16515
     16510     16513     16516     16514     16513     16515     16514     16513     16516
     16515     16513     16516     16513     16516     16517     16513     16516     16518
     16513     16516     16519     16517     16516     16518     16517     16516     16519
     16518     16516     16519     16516     16519     16520     16516     16519     16521
     16516     16519     16522     16520     16519     16521     16520     16519     16522
     16521     16519     16522     16519     16522     16523     16519     16522     16524
     16519     16522     16525     16523     16522     16524     16523     16522     16525
     16524     16522     16525     16522     16525     16526     16522     16525     16527
     16522     16525     16528     16526     16525     16527     16526     16525     16528
     16527     16525     16528     16525     16528     16529     16525     16528     16530
     16525     16528     16531     16529     16528     16530     16529     16528     16531
     16530     16528     16531     16528     16531     16532     16528     16531     16533
     16528     16531     16534     16532     16531     16533     16532     16531     16534
     16533     16531     16534     16531     16534     16535     16531     16534     16536
     16531     16534     16537     16535     16534     16536     16535     16534     16537
     16536     16534     16537     16534     16537     16538     16534     16537     16539
     16534     16537     16540     16538     16537     16539     16538     16537     16540
     16539     16537     16540     16537     16540     16541     16537     16540     16542
     16537     16540     16543     16541     16540     16542     16541     16540     16543
     16542     16540     16543     16540     16543     16544     16540     16543     16545
     16540     16543     16546     16544     16543     16545     16544     16543     16546
     16545     16543     16546     16548     16547     16551     16548     16547     16555
     16548     16547     16559     16551     16547     16555     16551     16547     16559
     16555     16547     16559     16547     16548     16549     16547     16548     16550
     16547     16548     16563     16549     16548     16550     16549     16548     16563
     16550     16548     16563     16547     16551     16552     16547     16551     16553
     16547     16551     16554     16552     16551     16553     16552     16551     16554
     16553     16551     16554     16547     16555     16556     16547     16555     16557
     16547     16555     16558     16556     16555     16557     16556     16555     16558
     16557     16555     16558     16547     16559     16560     16547     16559     16561
     16547     16559     16562     16560     16559     16561     16560     16559     16562
     16561     16559     16562     16548     16563     16564     16548     16563     16565
     16548     16563     16569     16564     16563     16565     16564     16563     16569
     16565     16563     16569     16567     16566     16568     16567     16566     16569
     16567     16566     16570     16568     16566     16569     16568     16566     16570
     16569     16566     16570     16563     16569     16566     16566     16570     16571
     16570     16571     16572     16570     16571     16573     16570     16571     16574
     16572     16571     16573     16572     16571     16574     16573     16571     16574
     16571     16574     16575     16571     16574     16576     16571     16574     16582
     16575     16574     16576     16575     16574     16582     16576     16574     16582
     16574     16576     16577     16576     16577     16578     16576     16577     16579
     16578     16577     16579     16577     16579     16580     16577     16579     16581
     16577     16579     16591     16580     16579     16581     16580     16579     16591
     16581     16579     16591     16574     16582     16583     16574     16582     16584
     16574     16582     16585     16583     16582     16584     16583     16582     16585
     16584     16582     16585     16582     16585     16586     16585     16586     16587
     16585     16586     16588     16587     16586     16588     16586     16588     16589
     16586     16588     16590     16586     16588     16638     16589     16588     16590
     16589     16588     16638     16590     16588     16638     16579     16591     16592
     16579     16591     16593     16579     16591     16594     16592     16591     16593
     16592     16591     16594     16593     16591     16594     16591     16594     16595
     16591     16594     16596     16591     16594     16597     16595     16594     16596
     16595     16594     16597     16596     16594     16597     16594     16597     16598
     16594     16597     16599     16594     16597     16600     16598     16597     16599
     16598     16597     16600     16599     16597     16600     16597     16600     16601
     16597     16600     16602     16597     16600     16603     16601     16600     16602
     16601     16600     16603     16602     16600     16603     16600     16603     16604
     16600     16603     16605     16600     16603     16606     16604     16603     16605
     16604     16603     16606     16605     16603     16606     16603     16606     16607
     16603     16606     16608     16603     16606     16609     16607     16606     16608
     16607     16606     16609     16608     16606     16609     16606     16609     16610
     16606     16609     16611     16610     16609     16611     16609     16611     16612
     16609     16611     16613     16612     16611     16613     16611     16613     16614
     16611     16613     16615     16611     16613     16616     16614     16613     16615
     16614     16613     16616     16615     16613     16616     16613     16616     16617
     16613     16616     16618     16613     16616     16619     16617     16616     16618
     16617     16616     16619     16618     16616     16619     16616     16619     16620
     16616     16619     16621     16616     16619     16622     16620     16619     16621
     16620     16619     16622     16621     16619     16622     16619     16622     16623
     16619     16622     16624     16619     16622     16625     16623     16622     16624
     16623     16622     16625     16624     16622     16625     16622     16625     16626
     16622     16625     16627     16622     16625     16628     16626     16625     16627
     16626     16625     16628     16627     16625     16628     16625     16628     16629
     16625     16628     16630     16625     16628     16631     16629     16628     16630
     16629     16628     16631     16630     16628     16631     16628     16631     16632
     16628     16631     16633     16628     16631     16634     16632     16631     16633
     16632     16631     16634     16633     16631     16634     16631     16634     16635
     16631     16634     16636     16631     16634     16637     16635     16634     16636
     16635     16634     16637     16636     16634     16637     16588     16638     16639
     16588     16638     16640     16588     16638     16641     16639     16638     16640
     16639     16638     16641     16640     16638     16641     16638     16641     16642
     16638     16641     16643     16638     16641     16644     16642     16641     16643
     16642     16641     16644     16643     16641     16644     16641     16644     16645
     16641     16644     16646     16641     16644     16647     16645     16644     16646
     16645     16644     16647     16646     16644     16647     16644     16647     16648
     16644     16647     16649     16644     16647     16650     16648     16647     16649
     16648     16647     16650     16649     16647     16650     16647     16650     16651
     16647     16650     16652     16647     16650     16653     16651     16650     16652
     16651     16650     16653     16652     16650     16653     16650     16653     16654
     16650     16653     16655     16650     16653     16656     16654     16653     16655
     16654     16653     16656     16655     16653     16656     16653     16656     16657
     16653     16656     16658     16653     16656     16659     16657     16656     16658
     16657     16656     16659     16658     16656     16659     16656     16659     16660
     16656     16659     16661     16656     16659     16662     16660     16659     16661
     16660     16659     16662     16661     16659     16662     16659     16662     16663
     16659     16662     16664     16659     16662     16665     16663     16662     16664
     16663     16662     16665     16664     16662     16665     16662     16665     16666
     16662     16665     16667     16662     16665     16668     16666     16665     16667
     16666     16665     16668     16667     16665     16668     16665     16668     16669
     16665     16668     16670     16665     16668     16671     16669     16668     16670
     16669     16668     16671     16670     16668     16671     16668     16671     16672
     16668     16671     16673     16668     16671     16674     16672     16671     16673
     16672     16671     16674     16673     16671     16674     16671     16674     16675
     16671     16674     16676     16671     16674     16677     16675     16674     16676
     16675     16674     16677     16676     16674     16677     16674     16677     16678
     16674     16677     16679     16674     16677     16680     16678     16677     16679
     16678     16677     16680     16679     16677     16680     16682     16681     16685
     16682     16681     16689     16682     16681     16693     16685     16681     16689
     16685     16681     16693     16689     16681     16693     16681     16682     16683
     16681     16682     16684     16681     16682     16697     16683     16682     16684
     16683     16682     16697     16684     16682     16697     16681     16685     16686
     16681     16685     16687     16681     16685     16688     16686     16685     16687
     16686     16685     16688     16687     16685     16688     16681     16689     16690
     16681     16689     16691     16681     16689     16692     16690     16689     16691
     16690     16689     16692     16691     16689     16692     16681     16693     16694
     16681     16693     16695     16681     16693     16696     16694     16693     16695
     16694     16693     16696     16695     16693     16696     16682     16697     16698
     16682     16697     16699     16682     16697     16703     16698     16697     16699
     16698     16697     16703     16699     16697     16703     16701     16700     16702
     16701     16700     16703     16701     16700     16704     16702     16700     16703
     16702     16700     16704     16703     16700     16704     16697     16703     16700
     16700     16704     16705     16704     16705     16706     16704     16705     16707
     16704     16705     16708     16706     16705     16707     16706     16705     16708
     16707     16705     16708     16705     16708     16709     16705     16708     16710
     16705     16708     16716     16709     16708     16710     16709     16708     16716
     16710     16708     16716     16708     16710     16711     16710     16711     16712
     16710     16711     16713     16712     16711     16713     16711     16713     16714
     16711     16713     16715     16711     16713     16725     16714     16713     16715
     16714     16713     16725     16715     16713     16725     16708     16716     16717
     16708     16716     16718     16708     16716     16719     16717     16716     16718
     16717     16716     16719     16718     16716     16719     16716     16719     16720
     16719     16720     16721     16719     16720     16722     16721     16720     16722
     16720     16722     16723     16720     16722     16724     16720     16722     16772
     16723     16722     16724     16723     16722     16772     16724     16722     16772
     16713     16725     16726     16713     16725     16727     16713     16725     16728
     16726     16725     16727     16726     16725     16728     16727     16725     16728
     16725     16728     16729     16725     16728     16730     16725     16728     16731
     16729     16728     16730     16729     16728     16731     16730     16728     16731
     16728     16731     16732     16728     16731     16733     16728     16731     16734
     16732     16731     16733     16732     16731     16734     16733     16731     16734
     16731     16734     16735     16731     16734     16736     16731     16734     16737
     16735     16734     16736     16735     16734     16737     16736     16734     16737
     16734     16737     16738     16734     16737     16739     16734     16737     16740
     16738     16737     16739     16738     16737     16740     16739     16737     16740
     16737     16740     16741     16737     16740     16742     16737     16740     16743
     16741     16740     16742     16741     16740     16743     16742     16740     16743
     16740     16743     16744     16740     16743     16745     16744     16743     16745
     16743     16745     16746     16743     16745     16747     16746     16745     16747
     16745     16747     16748     16745     16747     16749     16745     16747     16750
     16748     16747     16749     16748     16747     16750     16749     16747     16750
     16747     16750     16751     16747     16750     16752     16747     16750     16753
     16751     16750     16752     16751     16750     16753     16752     16750     16753
     16750     16753     16754     16750     16753     16755     16750     16753     16756
     16754     16753     16755     16754     16753     16756     16755     16753     16756
     16753     16756     16757     16753     16756     16758     16753     16756     16759
     16757     16756     16758     16757     16756     16759     16758     16756     16759
     16756     16759     16760     16756     16759     16761     16756     16759     16762
     16760     16759     16761     16760     16759     16762     16761     16759     16762
     16759     16762     16763     16759     16762     16764     16759     16762     16765
     16763     16762     16764     16763     16762     16765     16764     16762     16765
     16762     16765     16766     16762     16765     16767     16762     16765     16768
     16766     16765     16767     16766     16765     16768     16767     16765     16768
     16765     16768     16769     16765     16768     16770     16765     16768     16771
     16769     16768     16770     16769     16768     16771     16770     16768     16771
     16722     16772     16773     16722     16772     16774     16722     16772     16775
     16773     16772     16774     16773     16772     16775     16774     16772     16775
     16772     16775     16776     16772     16775     16777     16772     16775     16778
     16776     16775     16777     16776     16775     16778     16777     16775     16778
     16775     16778     16779     16775     16778     16780     16775     16778     16781
     16779     16778     16780     16779     16778     16781     16780     16778     16781
     16778     16781     16782     16778     16781     16783     16778     16781     16784
     16782     16781     16783     16782     16781     16784     16783     16781     16784
     16781     16784     16785     16781     16784     16786     16781     16784     16787
     16785     16784     16786     16785     16784     16787     16786     16784     16787
     16784     16787     16788     16784     16787     16789     16784     16787     16790
     16788     16787     16789     16788     16787     16790     16789     16787     16790
     16787     16790     16791     16787     16790     16792     16787     16790     16793
     16791     16790     16792     16791     16790     16793     16792     16790     16793
     16790     16793     16794     16790     16793     16795     16790     16793     16796
     16794     16793     16795     16794     16793     16796     16795     16793     16796
     16793     16796     16797     16793     16796     16798     16793     16796     16799
     16797     16796     16798     16797     16796     16799     16798     16796     16799
     16796     16799     16800     16796     16799     16801     16796     16799     16802
     16800     16799     16801     16800     16799     16802     16801     16799     16802
     16799     16802     16803     16799     16802     16804     16799     16802     16805
     16803     16802     16804     16803     16802     16805     16804     16802     16805
     16802     16805     16806     16802     16805     16807     16802     16805     16808
     16806     16805     16807     16806     16805     16808     16807     16805     16808
     16805     16808     16809     16805     16808     16810     16805     16808     16811
     16809     16808     16810     16809     16808     16811     16810     16808     16811
     16808     16811     16812     16808     16811     16813     16808     16811     16814
     16812     16811     16813     16812     16811     16814     16813     16811     16814
     16816     16815     16819     16816     16815     16823     16816     16815     16827
     16819     16815     16823     16819     16815     16827     16823     16815     16827
     16815     16816     16817     16815     16816     16818     16815     16816     16831
     16817     16816     16818     16817     16816     16831     16818     16816     16831
     16815     16819     16820     16815     16819     16821     16815     16819     16822
     16820     16819     16821     16820     16819     16822     16821     16819     16822
     16815     16823     16824     16815     16823     16825     16815     16823     16826
     16824     16823     16825     16824     16823     16826     16825     16823     16826
     16815     16827     16828     16815     16827     16829     16815     16827     16830
     16828     16827     16829     16828     16827     16830     16829     16827     16830
     16816     16831     16832     16816     16831     16833     16816     16831     16837
     16832     16831     16833     16832     16831     16837     16833     16831     16837
     16835     16834     16836     16835     16834     16837     16835     16834     16838
     16836     16834     16837     16836     16834     16838     16837     16834     16838
     16831     16837     16834     16834     16838     16839     16838     16839     16840
     16838     16839     16841     16838     16839     16842     16840     16839     16841
     16840     16839     16842     16841     16839     16842     16839     16842     16843
     16839     16842     16844     16839     16842     16850     16843     16842     16844
     16843     16842     16850     16844     16842     16850     16842     16844     16845
     16844     16845     16846     16844     16845     16847     16846     16845     16847
     16845     16847     16848     16845     16847     16849     16845     16847     16859
     16848     16847     16849     16848     16847     16859     16849     16847     16859
     16842     16850     16851     16842     16850     16852     16842     16850     16853
     16851     16850     16852     16851     16850     16853     16852     16850     16853
     16850     16853     16854     16853     16854     16855     16853     16854     16856
     16855     16854     16856     16854     16856     16857     16854     16856     16858
     16854     16856     16906     16857     16856     16858     16857     16856     16906
     16858     16856     16906     16847     16859     16860     16847     16859     16861
     16847     16859     16862     16860     16859     16861     16860     16859     16862
     16861     16859     16862     16859     16862     16863     16859     16862     16864
     16859     16862     16865     16863     16862     16864     16863     16862     16865
     16864     16862     16865     16862     16865     16866     16862     16865     16867
     16862     16865     16868     16866     16865     16867     16866     16865     16868
     16867     16865     16868     16865     16868     16869     16865     16868     16870
     16865     16868     16871     16869     16868     16870     16869     16868     16871
     16870     16868     16871     16868     16871     16872     16868     16871     16873
     16868     16871     16874     16872     16871     16873     16872     16871     16874
     16873     16871     16874     16871     16874     16875     16871     16874     16876
     16871     16874     16877     16875     16874     16876     16875     16874     16877
     16876     16874     16877     16874     16877     16878     16874     16877     16879
     16878     16877     16879     16877     16879     16880     16877     16879     16881
     16880     16879     16881     16879     16881     16882     16879     16881     16883
     16879     16881     16884     16882     16881     16883     16882     16881     16884
     16883     16881     16884     16881     16884     16885     16881     16884     16886
     16881     16884     16887     16885     16884     16886     16885     16884     16887
     16886     16884     16887     16884     16887     16888     16884     16887     16889
     16884     16887     16890     16888     16887     16889     16888     16887     16890
     16889     16887     16890     16887     16890     16891     16887     16890     16892
     16887     16890     16893     16891     16890     16892     16891     16890     16893
     16892     16890     16893     16890     16893     16894     16890     16893     16895
     16890     16893     16896     16894     16893     16895     16894     16893     16896
     16895     16893     16896     16893     16896     16897     16893     16896     16898
     16893     16896     16899     16897     16896     16898     16897     16896     16899
     16898     16896     16899     16896     16899     16900     16896     16899     16901
     16896     16899     16902     16900     16899     16901     16900     16899     16902
     16901     16899     16902     16899     16902     16903     16899     16902     16904
     16899     16902     16905     16903     16902     16904     16903     16902     16905
     16904     16902     16905     16856     16906     16907     16856     16906     16908
     16856     16906     16909     16907     16906     16908     16907     16906     16909
     16908     16906     16909     16906     16909     16910     16906     16909     16911
     16906     16909     16912     16910     16909     16911     16910     16909     16912
     16911     16909     16912     16909     16912     16913     16909     16912     16914
     16909     16912     16915     16913     16912     16914     16913     16912     16915
     16914     16912     16915     16912     16915     16916     16912     16915     16917
     16912     16915     16918     16916     16915     16917     16916     16915     16918
     16917     16915     16918     16915     16918     16919     16915     16918     16920
     16915     16918     16921     16919     16918     16920     16919     16918     16921
     16920     16918     16921     16918     16921     16922     16918     16921     16923
     16918     16921     16924     16922     16921     16923     16922     16921     16924
     16923     16921     16924     16921     16924     16925     16921     16924     16926
     16921     16924     16927     16925     16924     16926     16925     16924     16927
     16926     16924     16927     16924     16927     16928     16924     16927     16929
     16924     16927     16930     16928     16927     16929     16928     16927     16930
     16929     16927     16930     16927     16930     16931     16927     16930     16932
     16927     16930     16933     16931     16930     16932     16931     16930     16933
     16932     16930     16933     16930     16933     16934     16930     16933     16935
     16930     16933     16936     16934     16933     16935     16934     16933     16936
     16935     16933     16936     16933     16936     16937     16933     16936     16938
     16933     16936     16939     16937     16936     16938     16937     16936     16939
     16938     16936     16939     16936     16939     16940     16936     16939     16941
     16936     16939     16942     16940     16939     16941     16940     16939     16942
     16941     16939     16942     16939     16942     16943     16939     16942     16944
     16939     16942     16945     16943     16942     16944     16943     16942     16945
     16944     16942     16945     16942     16945     16946     16942     16945     16947
     16942     16945     16948     16946     16945     16947     16946     16945     16948
     16947     16945     16948     16950     16949     16953     16950     16949     16957
     16950     16949     16961     16953     16949     16957     16953     16949     16961
     16957     16949     16961     16949     16950     16951     16949     16950     16952
     16949     16950     16965     16951     16950     16952     16951     16950     16965
     16952     16950     16965     16949     16953     16954     16949     16953     16955
     16949     16953     16956     16954     16953     16955     16954     16953     16956
     16955     16953     16956     16949     16957     16958     16949     16957     16959
     16949     16957     16960     16958     16957     16959     16958     16957     16960
     16959     16957     16960     16949     16961     16962     16949     16961     16963
     16949     16961     16964     16962     16961     16963     16962     16961     16964
     16963     16961     16964     16950     16965     16966     16950     16965     16967
     16950     16965     16971     16966     16965     16967     16966     16965     16971
     16967     16965     16971     16969     16968     16970     16969     16968     16971
     16969     16968     16972     16970     16968     16971     16970     16968     16972
     16971     16968     16972     16965     16971     16968     16968     16972     16973
     16972     16973     16974     16972     16973     16975     16972     16973     16976
     16974     16973     16975     16974     16973     16976     16975     16973     16976
     16973     16976     16977     16973     16976     16978     16973     16976     16984
     16977     16976     16978     16977     16976     16984     16978     16976     16984
     16976     16978     16979     16978     16979     16980     16978     16979     16981
     16980     16979     16981     16979     16981     16982     16979     16981     16983
     16979     16981     16993     16982     16981     16983     16982     16981     16993
     16983     16981     16993     16976     16984     16985     16976     16984     16986
     16976     16984     16987     16985     16984     16986     16985     16984     16987
     16986     16984     16987     16984     16987     16988     16987     16988     16989
     16987     16988     16990     16989     16988     16990     16988     16990     16991
     16988     16990     16992     16988     16990     17040     16991     16990     16992
     16991     16990     17040     16992     16990     17040     16981     16993     16994
     16981     16993     16995     16981     16993     16996     16994     16993     16995
     16994     16993     16996     16995     16993     16996     16993     16996     16997
     16993     16996     16998     16993     16996     16999     16997     16996     16998
     16997     16996     16999     16998     16996     16999     16996     16999     17000
     16996     16999     17001     16996     16999     17002     17000     16999     17001
     17000     16999     17002     17001     16999     17002     16999     17002     17003
     16999     17002     17004     16999     17002     17005     17003     17002     17004
     17003     17002     17005     17004     17002     17005     17002     17005     17006
     17002     17005     17007     17002     17005     17008     17006     17005     17007
     17006     17005     17008     17007     17005     17008     17005     17008     17009
     17005     17008     17010     17005     17008     17011     17009     17008     17010
     17009     17008     17011     17010     17008     17011     17008     17011     17012
     17008     17011     17013     17012     17011     17013     17011     17013     17014
     17011     17013     17015     17014     17013     17015     17013     17015     17016
     17013     17015     17017     17013     17015     17018     17016     17015     17017
     17016     17015     17018     17017     17015     17018     17015     17018     17019
     17015     17018     17020     17015     17018     17021     17019     17018     17020
     17019     17018     17021     17020     17018     17021     17018     17021     17022
     17018     17021     17023     17018     17021     17024     17022     17021     17023
     17022     17021     17024     17023     17021     17024     17021     17024     17025
     17021     17024     17026     17021     17024     17027     17025     17024     17026
     17025     17024     17027     17026     17024     17027     17024     17027     17028
     17024     17027     17029     17024     17027     17030     17028     17027     17029
     17028     17027     17030     17029     17027     17030     17027     17030     17031
     17027     17030     17032     17027     17030     17033     17031     17030     17032
     17031     17030     17033     17032     17030     17033     17030     17033     17034
     17030     17033     17035     17030     17033     17036     17034     17033     17035
     17034     17033     17036     17035     17033     17036     17033     17036     17037
     17033     17036     17038     17033     17036     17039     17037     17036     17038
     17037     17036     17039     17038     17036     17039     16990     17040     17041
     16990     17040     17042     16990     17040     17043     17041     17040     17042
     17041     17040     17043     17042     17040     17043     17040     17043     17044
     17040     17043     17045     17040     17043     17046     17044     17043     17045
     17044     17043     17046     17045     17043     17046     17043     17046     17047
     17043     17046     17048     17043     17046     17049     17047     17046     17048
     17047     17046     17049     17048     17046     17049     17046     17049     17050
     17046     17049     17051     17046     17049     17052     17050     17049     17051
     17050     17049     17052     17051     17049     17052     17049     17052     17053
     17049     17052     17054     17049     17052     17055     17053     17052     17054
     17053     17052     17055     17054     17052     17055     17052     17055     17056
     17052     17055     17057     17052     17055     17058     17056     17055     17057
     17056     17055     17058     17057     17055     17058     17055     17058     17059
     17055     17058     17060     17055     17058     17061     17059     17058     17060
     17059     17058     17061     17060     17058     17061     17058     17061     17062
     17058     17061     17063     17058     17061     17064     17062     17061     17063
     17062     17061     17064     17063     17061     17064     17061     17064     17065
     17061     17064     17066     17061     17064     17067     17065     17064     17066
     17065     17064     17067     17066     17064     17067     17064     17067     17068
     17064     17067     17069     17064     17067     17070     17068     17067     17069
     17068     17067     17070     17069     17067     17070     17067     17070     17071
     17067     17070     17072     17067     17070     17073     17071     17070     17072
     17071     17070     17073     17072     17070     17073     17070     17073     17074
     17070     17073     17075     17070     17073     17076     17074     17073     17075
     17074     17073     17076     17075     17073     17076     17073     17076     17077
     17073     17076     17078     17073     17076     17079     17077     17076     17078
     17077     17076     17079     17078     17076     17079     17076     17079     17080
     17076     17079     17081     17076     17079     17082     17080     17079     17081
     17080     17079     17082     17081     17079     17082     17084     17083     17087
     17084     17083     17091     17084     17083     17095     17087     17083     17091
     17087     17083     17095     17091     17083     17095     17083     17084     17085
     17083     17084     17086     17083     17084     17099     17085     17084     17086
     17085     17084     17099     17086     17084     17099     17083     17087     17088
     17083     17087     17089     17083     17087     17090     17088     17087     17089
     17088     17087     17090     17089     17087     17090     17083     17091     17092
     17083     17091     17093     17083     17091     17094     17092     17091     17093
     17092     17091     17094     17093     17091     17094     17083     17095     17096
     17083     17095     17097     17083     17095     17098     17096     17095     17097
     17096     17095     17098     17097     17095     17098     17084     17099     17100
     17084     17099     17101     17084     17099     17105     17100     17099     17101
     17100     17099     17105     17101     17099     17105     17103     17102     17104
     17103     17102     17105     17103     17102     17106     17104     17102     17105
     17104     17102     17106     17105     17102     17106     17099     17105     17102
     17102     17106     17107     17106     17107     17108     17106     17107     17109
     17106     17107     17110     17108     17107     17109     17108     17107     17110
     17109     17107     17110     17107     17110     17111     17107     17110     17112
     17107     17110     17118     17111     17110     17112     17111     17110     17118
     17112     17110     17118     17110     17112     17113     17112     17113     17114
     17112     17113     17115     17114     17113     17115     17113     17115     17116
     17113     17115     17117     17113     17115     17127     17116     17115     17117
     17116     17115     17127     17117     17115     17127     17110     17118     17119
     17110     17118     17120     17110     17118     17121     17119     17118     17120
     17119     17118     17121     17120     17118     17121     17118     17121     17122
     17121     17122     17123     17121     17122     17124     17123     17122     17124
     17122     17124     17125     17122     17124     17126     17122     17124     17174
     17125     17124     17126     17125     17124     17174     17126     17124     17174
     17115     17127     17128     17115     17127     17129     17115     17127     17130
     17128     17127     17129     17128     17127     17130     17129     17127     17130
     17127     17130     17131     17127     17130     17132     17127     17130     17133
     17131     17130     17132     17131     17130     17133     17132     17130     17133
     17130     17133     17134     17130     17133     17135     17130     17133     17136
     17134     17133     17135     17134     17133     17136     17135     17133     17136
     17133     17136     17137     17133     17136     17138     17133     17136     17139
     17137     17136     17138     17137     17136     17139     17138     17136     17139
     17136     17139     17140     17136     17139     17141     17136     17139     17142
     17140     17139     17141     17140     17139     17142     17141     17139     17142
     17139     17142     17143     17139     17142     17144     17139     17142     17145
     17143     17142     17144     17143     17142     17145     17144     17142     17145
     17142     17145     17146     17142     17145     17147     17146     17145     17147
     17145     17147     17148     17145     17147     17149     17148     17147     17149
     17147     17149     17150     17147     17149     17151     17147     17149     17152
     17150     17149     17151     17150     17149     17152     17151     17149     17152
     17149     17152     17153     17149     17152     17154     17149     17152     17155
     17153     17152     17154     17153     17152     17155     17154     17152     17155
     17152     17155     17156     17152     17155     17157     17152     17155     17158
     17156     17155     17157     17156     17155     17158     17157     17155     17158
     17155     17158     17159     17155     17158     17160     17155     17158     17161
     17159     17158     17160     17159     17158     17161     17160     17158     17161
     17158     17161     17162     17158     17161     17163     17158     17161     17164
     17162     17161     17163     17162     17161     17164     17163     17161     17164
     17161     17164     17165     17161     17164     17166     17161     17164     17167
     17165     17164     17166     17165     17164     17167     17166     17164     17167
     17164     17167     17168     17164     17167     17169     17164     17167     17170
     17168     17167     17169     17168     17167     17170     17169     17167     17170
     17167     17170     17171     17167     17170     17172     17167     17170     17173
     17171     17170     17172     17171     17170     17173     17172     17170     17173
     17124     17174     17175     17124     17174     17176     17124     17174     17177
     17175     17174     17176     17175     17174     17177     17176     17174     17177
     17174     17177     17178     17174     17177     17179     17174     17177     17180
     17178     17177     17179     17178     17177     17180     17179     17177     17180
     17177     17180     17181     17177     17180     17182     17177     17180     17183
     17181     17180     17182     17181     17180     17183     17182     17180     17183
     17180     17183     17184     17180     17183     17185     17180     17183     17186
     17184     17183     17185     17184     17183     17186     17185     17183     17186
     17183     17186     17187     17183     17186     17188     17183     17186     17189
     17187     17186     17188     17187     17186     17189     17188     17186     17189
     17186     17189     17190     17186     17189     17191     17186     17189     17192
     17190     17189     17191     17190     17189     17192     17191     17189     17192
     17189     17192     17193     17189     17192     17194     17189     17192     17195
     17193     17192     17194     17193     17192     17195     17194     17192     17195
     17192     17195     17196     17192     17195     17197     17192     17195     17198
     17196     17195     17197     17196     17195     17198     17197     17195     17198
     17195     17198     17199     17195     17198     17200     17195     17198     17201
     17199     17198     17200     17199     17198     17201     17200     17198     17201
     17198     17201     17202     17198     17201     17203     17198     17201     17204
     17202     17201     17203     17202     17201     17204     17203     17201     17204
     17201     17204     17205     17201     17204     17206     17201     17204     17207
     17205     17204     17206     17205     17204     17207     17206     17204     17207
     17204     17207     17208     17204     17207     17209     17204     17207     17210
     17208     17207     17209     17208     17207     17210     17209     17207     17210
     17207     17210     17211     17207     17210     17212     17207     17210     17213
     17211     17210     17212     17211     17210     17213     17212     17210     17213
     17210     17213     17214     17210     17213     17215     17210     17213     17216
     17214     17213     17215     17214     17213     17216     17215     17213     17216
     17218     17217     17221     17218     17217     17225     17218     17217     17229
     17221     17217     17225     17221     17217     17229     17225     17217     17229
     17217     17218     17219     17217     17218     17220     17217     17218     17233
     17219     17218     17220     17219     17218     17233     17220     17218     17233
     17217     17221     17222     17217     17221     17223     17217     17221     17224
     17222     17221     17223     17222     17221     17224     17223     17221     17224
     17217     17225     17226     17217     17225     17227     17217     17225     17228
     17226     17225     17227     17226     17225     17228     17227     17225     17228
     17217     17229     17230     17217     17229     17231     17217     17229     17232
     17230     17229     17231     17230     17229     17232     17231     17229     17232
     17218     17233     17234     17218     17233     17235     17218     17233     17239
     17234     17233     17235     17234     17233     17239     17235     17233     17239
     17237     17236     17238     17237     17236     17239     17237     17236     17240
     17238     17236     17239     17238     17236     17240     17239     17236     17240
     17233     17239     17236     17236     17240     17241     17240     17241     17242
     17240     17241     17243     17240     17241     17244     17242     17241     17243
     17242     17241     17244     17243     17241     17244     17241     17244     17245
     17241     17244     17246     17241     17244     17252     17245     17244     17246
     17245     17244     17252     17246     17244     17252     17244     17246     17247
     17246     17247     17248     17246     17247     17249     17248     17247     17249
     17247     17249     17250     17247     17249     17251     17247     17249     17261
     17250     17249     17251     17250     17249     17261     17251     17249     17261
     17244     17252     17253     17244     17252     17254     17244     17252     17255
     17253     17252     17254     17253     17252     17255     17254     17252     17255
     17252     17255     17256     17255     17256     17257     17255     17256     17258
     17257     17256     17258     17256     17258     17259     17256     17258     17260
     17256     17258     17308     17259     17258     17260     17259     17258     17308
     17260     17258     17308     17249     17261     17262     17249     17261     17263
     17249     17261     17264     17262     17261     17263     17262     17261     17264
     17263     17261     17264     17261     17264     17265     17261     17264     17266
     17261     17264     17267     17265     17264     17266     17265     17264     17267
     17266     17264     17267     17264     17267     17268     17264     17267     17269
     17264     17267     17270     17268     17267     17269     17268     17267     17270
     17269     17267     17270     17267     17270     17271     17267     17270     17272
     17267     17270     17273     17271     17270     17272     17271     17270     17273
     17272     17270     17273     17270     17273     17274     17270     17273     17275
     17270     17273     17276     17274     17273     17275     17274     17273     17276
     17275     17273     17276     17273     17276     17277     17273     17276     17278
     17273     17276     17279     17277     17276     17278     17277     17276     17279
     17278     17276     17279     17276     17279     17280     17276     17279     17281
     17280     17279     17281     17279     17281     17282     17279     17281     17283
     17282     17281     17283     17281     17283     17284     17281     17283     17285
     17281     17283     17286     17284     17283     17285     17284     17283     17286
     17285     17283     17286     17283     17286     17287     17283     17286     17288
     17283     17286     17289     17287     17286     17288     17287     17286     17289
     17288     17286     17289     17286     17289     17290     17286     17289     17291
     17286     17289     17292     17290     17289     17291     17290     17289     17292
     17291     17289     17292     17289     17292     17293     17289     17292     17294
     17289     17292     17295     17293     17292     17294     17293     17292     17295
     17294     17292     17295     17292     17295     17296     17292     17295     17297
     17292     17295     17298     17296     17295     17297     17296     17295     17298
     17297     17295     17298     17295     17298     17299     17295     17298     17300
     17295     17298     17301     17299     17298     17300     17299     17298     17301
     17300     17298     17301     17298     17301     17302     17298     17301     17303
     17298     17301     17304     17302     17301     17303     17302     17301     17304
     17303     17301     17304     17301     17304     17305     17301     17304     17306
     17301     17304     17307     17305     17304     17306     17305     17304     17307
     17306     17304     17307     17258     17308     17309     17258     17308     17310
     17258     17308     17311     17309     17308     17310     17309     17308     17311
     17310     17308     17311     17308     17311     17312     17308     17311     17313
     17308     17311     17314     17312     17311     17313     17312     17311     17314
     17313     17311     17314     17311     17314     17315     17311     17314     17316
     17311     17314     17317     17315     17314     17316     17315     17314     17317
     17316     17314     17317     17314     17317     17318     17314     17317     17319
     17314     17317     17320     17318     17317     17319     17318     17317     17320
     17319     17317     17320     17317     17320     17321     17317     17320     17322
     17317     17320     17323     17321     17320     17322     17321     17320     17323
     17322     17320     17323     17320     17323     17324     17320     17323     17325
     17320     17323     17326     17324     17323     17325     17324     17323     17326
     17325     17323     17326     17323     17326     17327     17323     17326     17328
     17323     17326     17329     17327     17326     17328     17327     17326     17329
     17328     17326     17329     17326     17329     17330     17326     17329     17331
     17326     17329     17332     17330     17329     17331     17330     17329     17332
     17331     17329     17332     17329     17332     17333     17329     17332     17334
     17329     17332     17335     17333     17332     17334     17333     17332     17335
     17334     17332     17335     17332     17335     17336     17332     17335     17337
     17332     17335     17338     17336     17335     17337     17336     17335     17338
     17337     17335     17338     17335     17338     17339     17335     17338     17340
     17335     17338     17341     17339     17338     17340     17339     17338     17341
     17340     17338     17341     17338     17341     17342     17338     17341     17343
     17338     17341     17344     17342     17341     17343     17342     17341     17344
     17343     17341     17344     17341     17344     17345     17341     17344     17346
     17341     17344     17347     17345     17344     17346     17345     17344     17347
     17346     17344     17347     17344     17347     17348     17344     17347     17349
     17344     17347     17350     17348     17347     17349     17348     17347     17350
     17349     17347     17350     17352     17351     17353     17355     17354     17356
     17358     17357     17359     17361     17360     17362     17364     17363     17365
     17367     17366     17368     17370     17369     17371     17373     17372     17374
     17376     17375     17377     17379     17378     17380     17382     17381     17383
     17385     17384     17386     17388     17387     17389     17391     17390     17392
     17394     17393     17395     17397     17396     17398     17400     17399     17401
     17403     17402     17404     17406     17405     17407     17409     17408     17410
     17412     17411     17413     17415     17414     17416     17418     17417     17419
     17421     17420     17422     17424     17423     17425     17427     17426     17428
     17430     17429     17431     17433     17432     17434     17436     17435     17437
     17439     17438     17440     17442     17441     17443     17445     17444     17446
     17448     17447     17449     17451     17450     17452     17454     17453     17455
     17457     17456     17458     17460     17459     17461     17463     17462     17464
     17466     17465     17467     17469     17468     17470     17472     17471     17473
     17475     17474     17476     17478     17477     17479     17481     17480     17482
     17484     17483     17485     17487     17486     17488     17490     17489     17491
     17493     17492     17494     17496     17495     17497     17499     17498     17500
     17502     17501     17503     17505     17504     17506     17508     17507     17509
     17511     17510     17512     17514     17513     17515     17517     17516     17518
     17520     17519     17521     17523     17522     17524     17526     17525     17527
     17529     17528     17530     17532     17531     17533     17535     17534     17536
     17538     17537     17539     17541     17540     17542     17544     17543     17545
     17547     17546     17548     17550     17549     17551     17553     17552     17554
     17556     17555     17557     17559     17558     17560     17562     17561     17563
     17565     17564     17566     17568     17567     17569     17571     17570     17572
     17574     17573     17575     17577     17576     17578     17580     17579     17581
     17583     17582     17584     17586     17585     17587     17589     17588     17590
     17592     17591     17593     17595     17594     17596     17598     17597     17599
     17601     17600     17602     17604     17603     17605     17607     17606     17608
     17610     17609     17611     17613     17612     17614     17616     17615     17617
     17619     17618     17620     17622     17621     17623     17625     17624     17626
     17628     17627     17629     17631     17630     17632     17634     17633     17635
     17637     17636     17638     17640     17639     17641     17643     17642     17644
     17646     17645     17647     17649     17648     17650     17652     17651     17653
     17655     17654     17656     17658     17657     17659     17661     17660     17662
     17664     17663     17665     17667     17666     17668     17670     17669     17671
     17673     17672     17674     17676     17675     17677     17679     17678     17680
     17682     17681     17683     17685     17684     17686     17688     17687     17689
     17691     17690     17692     17694     17693     17695     17697     17696     17698
     17700     17699     17701     17703     17702     17704     17706     17705     17707
     17709     17708     17710     17712     17711     17713     17715     17714     17716
     17718     17717     17719     17721     17720     17722     17724     17723     17725
     17727     17726     17728     17730     17729     17731     17733     17732     17734
     17736     17735     17737     17739     17738     17740     17742     17741     17743
     17745     17744     17746     17748     17747     17749     17751     17750     17752
     17754     17753     17755     17757     17756     17758     17760     17759     17761
     17763     17762     17764     17766     17765     17767     17769     17768     17770
     17772     17771     17773     17775     17774     17776     17778     17777     17779
     17781     17780     17782     17784     17783     17785     17787     17786     17788
     17790     17789     17791     17793     17792     17794     17796     17795     17797
     17799     17798     17800     17802     17801     17803     17805     17804     17806
     17808     17807     17809     17811     17810     17812     17814     17813     17815
     17817     17816     17818     17820     17819     17821     17823     17822     17824
     17826     17825     17827     17829     17828     17830     17832     17831     17833
     17835     17834     17836     17838     17837     17839     17841     17840     17842
     17844     17843     17845     17847     17846     17848     17850     17849     17851
     17853     17852     17854     17856     17855     17857     17859     17858     17860
     17862     17861     17863     17865     17864     17866     17868     17867     17869
     17871     17870     17872     17874     17873     17875     17877     17876     17878
     17880     17879     17881     17883     17882     17884     17886     17885     17887
     17889     17888     17890     17892     17891     17893     17895     17894     17896
     17898     17897     17899     17901     17900     17902     17904     17903     17905
     17907     17906     17908     17910     17909     17911     17913     17912     17914
     17916     17915     17917     17919     17918     17920     17922     17921     17923
     17925     17924     17926     17928     17927     17929     17931     17930     17932
     17934     17933     17935     17937     17936     17938     17940     17939     17941
     17943     17942     17944     17946     17945     17947     17949     17948     17950
     17952     17951     17953     17955     17954     17956     17958     17957     17959
     17961     17960     17962     17964     17963     17965     17967     17966     17968
     17970     17969     17971     17973     17972     17974     17976     17975     17977
     17979     17978     17980     17982     17981     17983     17985     17984     17986
     17988     17987     17989     17991     17990     17992     17994     17993     17995
     17997     17996     17998     18000     17999     18001     18003     18002     18004
     18006     18005     18007     18009     18008     18010     18012     18011     18013
     18015     18014     18016     18018     18017     18019     18021     18020     18022
     18024     18023     18025     18027     18026     18028     18030     18029     18031
     18033     18032     18034     18036     18035     18037     18039     18038     18040
     18042     18041     18043     18045     18044     18046     18048     18047     18049
     18051     18050     18052     18054     18053     18055     18057     18056     18058
     18060     18059     18061     18063     18062     18064     18066     18065     18067
     18069     18068     18070     18072     18071     18073     18075     18074     18076
     18078     18077     18079     18081     18080     18082     18084     18083     18085
     18087     18086     18088     18090     18089     18091     18093     18092     18094
     18096     18095     18097     18099     18098     18100     18102     18101     18103
     18105     18104     18106     18108     18107     18109     18111     18110     18112
     18114     18113     18115     18117     18116     18118     18120     18119     18121
     18123     18122     18124     18126     18125     18127     18129     18128     18130
     18132     18131     18133     18135     18134     18136     18138     18137     18139
     18141     18140     18142     18144     18143     18145     18147     18146     18148
     18150     18149     18151     18153     18152     18154     18156     18155     18157
     18159     18158     18160     18162     18161     18163     18165     18164     18166
     18168     18167     18169     18171     18170     18172     18174     18173     18175
     18177     18176     18178     18180     18179     18181     18183     18182     18184
     18186     18185     18187     18189     18188     18190     18192     18191     18193
     18195     18194     18196     18198     18197     18199     18201     18200     18202
     18204     18203     18205     18207     18206     18208     18210     18209     18211
     18213     18212     18214     18216     18215     18217     18219     18218     18220
     18222     18221     18223     18225     18224     18226     18228     18227     18229
     18231     18230     18232     18234     18233     18235     18237     18236     18238
     18240     18239     18241     18243     18242     18244     18246     18245     18247
     18249     18248     18250     18252     18251     18253     18255     18254     18256
     18258     18257     18259     18261     18260     18262     18264     18263     18265
     18267     18266     18268     18270     18269     18271     18273     18272     18274
     18276     18275     18277     18279     18278     18280     18282     18281     18283
     18285     18284     18286     18288     18287     18289     18291     18290     18292
     18294     18293     18295     18297     18296     18298     18300     18299     18301
     18303     18302     18304     18306     18305     18307     18309     18308     18310
     18312     18311     18313     18315     18314     18316     18318     18317     18319
     18321     18320     18322     18324     18323     18325     18327     18326     18328
     18330     18329     18331     18333     18332     18334     18336     18335     18337
     18339     18338     18340     18342     18341     18343     18345     18344     18346
     18348     18347     18349     18351     18350     18352     18354     18353     18355
     18357     18356     18358     18360     18359     18361     18363     18362     18364
     18366     18365     18367     18369     18368     18370     18372     18371     18373
     18375     18374     18376     18378     18377     18379     18381     18380     18382
     18384     18383     18385     18387     18386     18388     18390     18389     18391
     18393     18392     18394     18396     18395     18397     18399     18398     18400
     18402     18401     18403     18405     18404     18406     18408     18407     18409
     18411     18410     18412     18414     18413     18415     18417     18416     18418
     18420     18419     18421     18423     18422     18424     18426     18425     18427
     18429     18428     18430     18432     18431     18433     18435     18434     18436
     18438     18437     18439     18441     18440     18442     18444     18443     18445
     18447     18446     18448     18450     18449     18451     18453     18452     18454
     18456     18455     18457     18459     18458     18460     18462     18461     18463
     18465     18464     18466     18468     18467     18469     18471     18470     18472
     18474     18473     18475     18477     18476     18478     18480     18479     18481
     18483     18482     18484     18486     18485     18487     18489     18488     18490
     18492     18491     18493     18495     18494     18496     18498     18497     18499
     18501     18500     18502     18504     18503     18505     18507     18506     18508
     18510     18509     18511     18513     18512     18514     18516     18515     18517
     18519     18518     18520     18522     18521     18523     18525     18524     18526
     18528     18527     18529     18531     18530     18532     18534     18533     18535
     18537     18536     18538     18540     18539     18541     18543     18542     18544
     18546     18545     18547     18549     18548     18550     18552     18551     18553
     18555     18554     18556     18558     18557     18559     18561     18560     18562
     18564     18563     18565     18567     18566     18568     18570     18569     18571
     18573     18572     18574     18576     18575     18577     18579     18578     18580
     18582     18581     18583     18585     18584     18586     18588     18587     18589
     18591     18590     18592     18594     18593     18595     18597     18596     18598
     18600     18599     18601     18603     18602     18604     18606     18605     18607
     18609     18608     18610     18612     18611     18613     18615     18614     18616
     18618     18617     18619     18621     18620     18622     18624     18623     18625
     18627     18626     18628     18630     18629     18631     18633     18632     18634
     18636     18635     18637     18639     18638     18640     18642     18641     18643
     18645     18644     18646     18648     18647     18649     18651     18650     18652
     18654     18653     18655     18657     18656     18658     18660     18659     18661
     18663     18662     18664     18666     18665     18667     18669     18668     18670
     18672     18671     18673     18675     18674     18676     18678     18677     18679
     18681     18680     18682     18684     18683     18685     18687     18686     18688
     18690     18689     18691     18693     18692     18694     18696     18695     18697
     18699     18698     18700     18702     18701     18703     18705     18704     18706
     18708     18707     18709     18711     18710     18712     18714     18713     18715
     18717     18716     18718     18720     18719     18721     18723     18722     18724
     18726     18725     18727     18729     18728     18730     18732     18731     18733
     18735     18734     18736     18738     18737     18739     18741     18740     18742
     18744     18743     18745     18747     18746     18748     18750     18749     18751
     18753     18752     18754     18756     18755     18757     18759     18758     18760
     18762     18761     18763     18765     18764     18766     18768     18767     18769
     18771     18770     18772     18774     18773     18775     18777     18776     18778
     18780     18779     18781     18783     18782     18784     18786     18785     18787
     18789     18788     18790     18792     18791     18793     18795     18794     18796
     18798     18797     18799     18801     18800     18802     18804     18803     18805
     18807     18806     18808     18810     18809     18811     18813     18812     18814
     18816     18815     18817     18819     18818     18820     18822     18821     18823
     18825     18824     18826     18828     18827     18829     18831     18830     18832
     18834     18833     18835     18837     18836     18838     18840     18839     18841
     18843     18842     18844     18846     18845     18847     18849     18848     18850
     18852     18851     18853     18855     18854     18856     18858     18857     18859
     18861     18860     18862     18864     18863     18865     18867     18866     18868
     18870     18869     18871     18873     18872     18874     18876     18875     18877
     18879     18878     18880     18882     18881     18883     18885     18884     18886
     18888     18887     18889     18891     18890     18892     18894     18893     18895
     18897     18896     18898     18900     18899     18901     18903     18902     18904
     18906     18905     18907     18909     18908     18910     18912     18911     18913
     18915     18914     18916     18918     18917     18919     18921     18920     18922
     18924     18923     18925     18927     18926     18928     18930     18929     18931
     18933     18932     18934     18936     18935     18937     18939     18938     18940
     18942     18941     18943     18945     18944     18946     18948     18947     18949
     18951     18950     18952     18954     18953     18955     18957     18956     18958
     18960     18959     18961     18963     18962     18964     18966     18965     18967
     18969     18968     18970     18972     18971     18973     18975     18974     18976
     18978     18977     18979     18981     18980     18982     18984     18983     18985
     18987     18986     18988     18990     18989     18991     18993     18992     18994
     18996     18995     18997     18999     18998     19000     19002     19001     19003
     19005     19004     19006     19008     19007     19009     19011     19010     19012
     19014     19013     19015     19017     19016     19018     19020     19019     19021
     19023     19022     19024     19026     19025     19027     19029     19028     19030
     19032     19031     19033     19035     19034     19036     19038     19037     19039
     19041     19040     19042     19044     19043     19045     19047     19046     19048
     19050     19049     19051     19053     19052     19054     19056     19055     19057
     19059     19058     19060     19062     19061     19063     19065     19064     19066
     19068     19067     19069     19071     19070     19072     19074     19073     19075
     19077     19076     19078     19080     19079     19081     19083     19082     19084
     19086     19085     19087     19089     19088     19090     19092     19091     19093
     19095     19094     19096     19098     19097     19099     19101     19100     19102
     19104     19103     19105     19107     19106     19108     19110     19109     19111
     19113     19112     19114     19116     19115     19117     19119     19118     19120
     19122     19121     19123     19125     19124     19126     19128     19127     19129
     19131     19130     19132     19134     19133     19135     19137     19136     19138
     19140     19139     19141     19143     19142     19144     19146     19145     19147
     19149     19148     19150     19152     19151     19153     19155     19154     19156
     19158     19157     19159     19161     19160     19162     19164     19163     19165
     19167     19166     19168     19170     19169     19171     19173     19172     19174
     19176     19175     19177     19179     19178     19180     19182     19181     19183
     19185     19184     19186     19188     19187     19189     19191     19190     19192
     19194     19193     19195     19197     19196     19198     19200     19199     19201
     19203     19202     19204     19206     19205     19207     19209     19208     19210
     19212     19211     19213     19215     19214     19216     19218     19217     19219
     19221     19220     19222     19224     19223     19225     19227     19226     19228
     19230     19229     19231     19233     19232     19234     19236     19235     19237
     19239     19238     19240     19242     19241     19243     19245     19244     19246
     19248     19247     19249     19251     19250     19252     19254     19253     19255
     19257     19256     19258     19260     19259     19261     19263     19262     19264
     19266     19265     19267     19269     19268     19270     19272     19271     19273
     19275     19274     19276     19278     19277     19279     19281     19280     19282
     19284     19283     19285     19287     19286     19288     19290     19289     19291
     19293     19292     19294     19296     19295     19297     19299     19298     19300
     19302     19301     19303     19305     19304     19306     19308     19307     19309
     19311     19310     19312     19314     19313     19315     19317     19316     19318
     19320     19319     19321     19323     19322     19324     19326     19325     19327
     19329     19328     19330     19332     19331     19333     19335     19334     19336
     19338     19337     19339     19341     19340     19342     19344     19343     19345
     19347     19346     19348     19350     19349     19351     19353     19352     19354
     19356     19355     19357     19359     19358     19360     19362     19361     19363
     19365     19364     19366     19368     19367     19369     19371     19370     19372
     19374     19373     19375     19377     19376     19378     19380     19379     19381
     19383     19382     19384     19386     19385     19387     19389     19388     19390
     19392     19391     19393     19395     19394     19396     19398     19397     19399
     19401     19400     19402     19404     19403     19405     19407     19406     19408
     19410     19409     19411     19413     19412     19414     19416     19415     19417
     19419     19418     19420     19422     19421     19423     19425     19424     19426
     19428     19427     19429     19431     19430     19432     19434     19433     19435
     19437     19436     19438     19440     19439     19441     19443     19442     19444
     19446     19445     19447     19449     19448     19450     19452     19451     19453
     19455     19454     19456     19458     19457     19459     19461     19460     19462
     19464     19463     19465     19467     19466     19468     19470     19469     19471
     19473     19472     19474     19476     19475     19477     19479     19478     19480
     19482     19481     19483     19485     19484     19486     19488     19487     19489
     19491     19490     19492     19494     19493     19495     19497     19496     19498
     19500     19499     19501     19503     19502     19504     19506     19505     19507
     19509     19508     19510     19512     19511     19513     19515     19514     19516
     19518     19517     19519     19521     19520     19522     19524     19523     19525
     19527     19526     19528     19530     19529     19531     19533     19532     19534
     19536     19535     19537     19539     19538     19540     19542     19541     19543
     19545     19544     19546     19548     19547     19549     19551     19550     19552
     19554     19553     19555     19557     19556     19558     19560     19559     19561
     19563     19562     19564     19566     19565     19567     19569     19568     19570
     19572     19571     19573     19575     19574     19576     19578     19577     19579
     19581     19580     19582     19584     19583     19585     19587     19586     19588
     19590     19589     19591     19593     19592     19594     19596     19595     19597
     19599     19598     19600     19602     19601     19603     19605     19604     19606
     19608     19607     19609     19611     19610     19612     19614     19613     19615
     19617     19616     19618     19620     19619     19621     19623     19622     19624
     19626     19625     19627     19629     19628     19630     19632     19631     19633
     19635     19634     19636     19638     19637     19639     19641     19640     19642
     19644     19643     19645     19647     19646     19648     19650     19649     19651
     19653     19652     19654     19656     19655     19657     19659     19658     19660
     19662     19661     19663     19665     19664     19666     19668     19667     19669
     19671     19670     19672     19674     19673     19675     19677     19676     19678
     19680     19679     19681     19683     19682     19684     19686     19685     19687
     19689     19688     19690     19692     19691     19693     19695     19694     19696
     19698     19697     19699     19701     19700     19702     19704     19703     19705
     19707     19706     19708     19710     19709     19711     19713     19712     19714
     19716     19715     19717     19719     19718     19720     19722     19721     19723
     19725     19724     19726     19728     19727     19729     19731     19730     19732
     19734     19733     19735     19737     19736     19738     19740     19739     19741
     19743     19742     19744     19746     19745     19747     19749     19748     19750
     19752     19751     19753     19755     19754     19756     19758     19757     19759
     19761     19760     19762     19764     19763     19765     19767     19766     19768
     19770     19769     19771     19773     19772     19774     19776     19775     19777
     19779     19778     19780     19782     19781     19783     19785     19784     19786
     19788     19787     19789     19791     19790     19792     19794     19793     19795
     19797     19796     19798     19800     19799     19801     19803     19802     19804
     19806     19805     19807     19809     19808     19810     19812     19811     19813
     19815     19814     19816     19818     19817     19819     19821     19820     19822
     19824     19823     19825     19827     19826     19828     19830     19829     19831
     19833     19832     19834     19836     19835     19837     19839     19838     19840
     19842     19841     19843     19845     19844     19846     19848     19847     19849
     19851     19850     19852     19854     19853     19855     19857     19856     19858
     19860     19859     19861     19863     19862     19864     19866     19865     19867
     19869     19868     19870     19872     19871     19873     19875     19874     19876
     19878     19877     19879     19881     19880     19882     19884     19883     19885
     19887     19886     19888     19890     19889     19891     19893     19892     19894
     19896     19895     19897     19899     19898     19900     19902     19901     19903
     19905     19904     19906     19908     19907     19909     19911     19910     19912
     19914     19913     19915     19917     19916     19918     19920     19919     19921
     19923     19922     19924     19926     19925     19927     19929     19928     19930
     19932     19931     19933     19935     19934     19936     19938     19937     19939
     19941     19940     19942     19944     19943     19945     19947     19946     19948
     19950     19949     19951     19953     19952     19954     19956     19955     19957
     19959     19958     19960     19962     19961     19963     19965     19964     19966
     19968     19967     19969     19971     19970     19972     19974     19973     19975
     19977     19976     19978     19980     19979     19981     19983     19982     19984
     19986     19985     19987     19989     19988     19990     19992     19991     19993
     19995     19994     19996     19998     19997     19999     20001     20000     20002
     20004     20003     20005     20007     20006     20008     20010     20009     20011
     20013     20012     20014     20016     20015     20017     20019     20018     20020
     20022     20021     20023     20025     20024     20026     20028     20027     20029
     20031     20030     20032     20034     20033     20035     20037     20036     20038
     20040     20039     20041     20043     20042     20044     20046     20045     20047
     20049     20048     20050     20052     20051     20053     20055     20054     20056
     20058     20057     20059     20061     20060     20062     20064     20063     20065
     20067     20066     20068     20070     20069     20071     20073     20072     20074
     20076     20075     20077     20079     20078     20080     20082     20081     20083
     20085     20084     20086     20088     20087     20089     20091     20090     20092
     20094     20093     20095     20097     20096     20098     20100     20099     20101
     20103     20102     20104     20106     20105     20107     20109     20108     20110
     20112     20111     20113     20115     20114     20116     20118     20117     20119
     20121     20120     20122     20124     20123     20125     20127     20126     20128
     20130     20129     20131     20133     20132     20134     20136     20135     20137
     20139     20138     20140     20142     20141     20143     20145     20144     20146
     20148     20147     20149     20151     20150     20152     20154     20153     20155
     20157     20156     20158     20160     20159     20161     20163     20162     20164
     20166     20165     20167     20169     20168     20170     20172     20171     20173
     20175     20174     20176     20178     20177     20179     20181     20180     20182
     20184     20183     20185     20187     20186     20188     20190     20189     20191
     20193     20192     20194     20196     20195     20197     20199     20198     20200
     20202     20201     20203     20205     20204     20206     20208     20207     20209
     20211     20210     20212     20214     20213     20215     20217     20216     20218
     20220     20219     20221     20223     20222     20224     20226     20225     20227
     20229     20228     20230     20232     20231     20233     20235     20234     20236
     20238     20237     20239     20241     20240     20242     20244     20243     20245
     20247     20246     20248     20250     20249     20251     20253     20252     20254
     20256     20255     20257     20259     20258     20260     20262     20261     20263
     20265     20264     20266     20268     20267     20269     20271     20270     20272
     20274     20273     20275     20277     20276     20278     20280     20279     20281
     20283     20282     20284     20286     20285     20287     20289     20288     20290
     20292     20291     20293     20295     20294     20296     20298     20297     20299
     20301     20300     20302     20304     20303     20305     20307     20306     20308
     20310     20309     20311     20313     20312     20314     20316     20315     20317
     20319     20318     20320     20322     20321     20323     20325     20324     20326
     20328     20327     20329     20331     20330     20332     20334     20333     20335
     20337     20336     20338     20340     20339     20341     20343     20342     20344
     20346     20345     20347     20349     20348     20350     20352     20351     20353
     20355     20354     20356     20358     20357     20359     20361     20360     20362
     20364     20363     20365     20367     20366     20368     20370     20369     20371
     20373     20372     20374     20376     20375     20377     20379     20378     20380
     20382     20381     20383     20385     20384     20386     20388     20387     20389
     20391     20390     20392     20394     20393     20395     20397     20396     20398
     20400     20399     20401     20403     20402     20404     20406     20405     20407
     20409     20408     20410     20412     20411     20413     20415     20414     20416
     20418     20417     20419     20421     20420     20422     20424     20423     20425
     20427     20426     20428     20430     20429     20431     20433     20432     20434
     20436     20435     20437     20439     20438     20440     20442     20441     20443
     20445     20444     20446     20448     20447     20449     20451     20450     20452
     20454     20453     20455     20457     20456     20458     20460     20459     20461
     20463     20462     20464     20466     20465     20467     20469     20468     20470
     20472     20471     20473     20475     20474     20476     20478     20477     20479
     20481     20480     20482     20484     20483     20485     20487     20486     20488
     20490     20489     20491     20493     20492     20494     20496     20495     20497
     20499     20498     20500     20502     20501     20503     20505     20504     20506
     20508     20507     20509     20511     20510     20512     20514     20513     20515
     20517     20516     20518     20520     20519     20521     20523     20522     20524
     20526     20525     20527     20529     20528     20530     20532     20531     20533
     20535     20534     20536     20538     20537     20539     20541     20540     20542
     20544     20543     20545     20547     20546     20548     20550     20549     20551
     20553     20552     20554     20556     20555     20557     20559     20558     20560
     20562     20561     20563     20565     20564     20566     20568     20567     20569
     20571     20570     20572     20574     20573     20575     20577     20576     20578
     20580     20579     20581     20583     20582     20584     20586     20585     20587
     20589     20588     20590     20592     20591     20593     20595     20594     20596
     20598     20597     20599     20601     20600     20602     20604     20603     20605
     20607     20606     20608     20610     20609     20611     20613     20612     20614
     20616     20615     20617     20619     20618     20620     20622     20621     20623
     20625     20624     20626     20628     20627     20629     20631     20630     20632
     20634     20633     20635     20637     20636     20638     20640     20639     20641
     20643     20642     20644     20646     20645     20647     20649     20648     20650
     20652     20651     20653     20655     20654     20656     20658     20657     20659
     20661     20660     20662     20664     20663     20665     20667     20666     20668
     20670     20669     20671     20673     20672     20674     20676     20675     20677
     20679     20678     20680     20682     20681     20683     20685     20684     20686
     20688     20687     20689     20691     20690     20692     20694     20693     20695
     20697     20696     20698     20700     20699     20701     20703     20702     20704
     20706     20705     20707     20709     20708     20710     20712     20711     20713
     20715     20714     20716     20718     20717     20719     20721     20720     20722
     20724     20723     20725     20727     20726     20728     20730     20729     20731
     20733     20732     20734     20736     20735     20737     20739     20738     20740
     20742     20741     20743     20745     20744     20746     20748     20747     20749
     20751     20750     20752     20754     20753     20755     20757     20756     20758
     20760     20759     20761     20763     20762     20764     20766     20765     20767
     20769     20768     20770     20772     20771     20773     20775     20774     20776
     20778     20777     20779     20781     20780     20782     20784     20783     20785
     20787     20786     20788     20790     20789     20791     20793     20792     20794
     20796     20795     20797     20799     20798     20800     20802     20801     20803
     20805     20804     20806     20808     20807     20809     20811     20810     20812
     20814     20813     20815     20817     20816     20818     20820     20819     20821
     20823     20822     20824     20826     20825     20827     20829     20828     20830
     20832     20831     20833     20835     20834     20836     20838     20837     20839
     20841     20840     20842     20844     20843     20845     20847     20846     20848
     20850     20849     20851     20853     20852     20854     20856     20855     20857
     20859     20858     20860     20862     20861     20863     20865     20864     20866
     20868     20867     20869     20871     20870     20872     20874     20873     20875
     20877     20876     20878     20880     20879     20881     20883     20882     20884
     20886     20885     20887     20889     20888     20890     20892     20891     20893
     20895     20894     20896     20898     20897     20899     20901     20900     20902
     20904     20903     20905     20907     20906     20908     20910     20909     20911
     20913     20912     20914     20916     20915     20917     20919     20918     20920
     20922     20921     20923     20925     20924     20926     20928     20927     20929
     20931     20930     20932     20934     20933     20935     20937     20936     20938
     20940     20939     20941     20943     20942     20944     20946     20945     20947
     20949     20948     20950     20952     20951     20953     20955     20954     20956
     20958     20957     20959     20961     20960     20962     20964     20963     20965
     20967     20966     20968     20970     20969     20971     20973     20972     20974
     20976     20975     20977     20979     20978     20980     20982     20981     20983
     20985     20984     20986     20988     20987     20989     20991     20990     20992
     20994     20993     20995     20997     20996     20998     21000     20999     21001
     21003     21002     21004     21006     21005     21007     21009     21008     21010
     21012     21011     21013     21015     21014     21016     21018     21017     21019
     21021     21020     21022     21024     21023     21025     21027     21026     21028
     21030     21029     21031     21033     21032     21034     21036     21035     21037
     21039     21038     21040     21042     21041     21043     21045     21044     21046
     21048     21047     21049     21051     21050     21052     21054     21053     21055
     21057     21056     21058     21060     21059     21061     21063     21062     21064
     21066     21065     21067     21069     21068     21070     21072     21071     21073
     21075     21074     21076     21078     21077     21079     21081     21080     21082
     21084     21083     21085     21087     21086     21088     21090     21089     21091
     21093     21092     21094     21096     21095     21097     21099     21098     21100
     21102     21101     21103     21105     21104     21106     21108     21107     21109
     21111     21110     21112     21114     21113     21115     21117     21116     21118
     21120     21119     21121     21123     21122     21124     21126     21125     21127
     21129     21128     21130     21132     21131     21133     21135     21134     21136
     21138     21137     21139     21141     21140     21142     21144     21143     21145
     21147     21146     21148     21150     21149     21151     21153     21152     21154
     21156     21155     21157     21159     21158     21160     21162     21161     21163
     21165     21164     21166     21168     21167     21169     21171     21170     21172
     21174     21173     21175     21177     21176     21178     21180     21179     21181
     21183     21182     21184     21186     21185     21187     21189     21188     21190
     21192     21191     21193     21195     21194     21196     21198     21197     21199
     21201     21200     21202     21204     21203     21205     21207     21206     21208
     21210     21209     21211     21213     21212     21214     21216     21215     21217
     21219     21218     21220     21222     21221     21223     21225     21224     21226
     21228     21227     21229     21231     21230     21232     21234     21233     21235
     21237     21236     21238     21240     21239     21241     21243     21242     21244
     21246     21245     21247     21249     21248     21250     21252     21251     21253
     21255     21254     21256     21258     21257     21259     21261     21260     21262
     21264     21263     21265     21267     21266     21268     21270     21269     21271
     21273     21272     21274     21276     21275     21277     21279     21278     21280
     21282     21281     21283     21285     21284     21286     21288     21287     21289
     21291     21290     21292     21294     21293     21295     21297     21296     21298
     21300     21299     21301     21303     21302     21304     21306     21305     21307
     21309     21308     21310     21312     21311     21313     21315     21314     21316
     21318     21317     21319     21321     21320     21322     21324     21323     21325
     21327     21326     21328     21330     21329     21331     21333     21332     21334
     21336     21335     21337     21339     21338     21340     21342     21341     21343
     21345     21344     21346     21348     21347     21349     21351     21350     21352
     21354     21353     21355     21357     21356     21358     21360     21359     21361
     21363     21362     21364     21366     21365     21367     21369     21368     21370
     21372     21371     21373     21375     21374     21376     21378     21377     21379
     21381     21380     21382     21384     21383     21385     21387     21386     21388
     21390     21389     21391     21393     21392     21394     21396     21395     21397
     21399     21398     21400     21402     21401     21403     21405     21404     21406
     21408     21407     21409     21411     21410     21412     21414     21413     21415
     21417     21416     21418     21420     21419     21421     21423     21422     21424
     21426     21425     21427     21429     21428     21430     21432     21431     21433
     21435     21434     21436     21438     21437     21439     21441     21440     21442
     21444     21443     21445     21447     21446     21448     21450     21449     21451
     21453     21452     21454     21456     21455     21457     21459     21458     21460
     21462     21461     21463     21465     21464     21466     21468     21467     21469
     21471     21470     21472     21474     21473     21475     21477     21476     21478
     21480     21479     21481     21483     21482     21484     21486     21485     21487
     21489     21488     21490     21492     21491     21493     21495     21494     21496
     21498     21497     21499     21501     21500     21502     21504     21503     21505
     21507     21506     21508     21510     21509     21511     21513     21512     21514
     21516     21515     21517     21519     21518     21520     21522     21521     21523
     21525     21524     21526     21528     21527     21529     21531     21530     21532
     21534     21533     21535     21537     21536     21538     21540     21539     21541
     21543     21542     21544     21546     21545     21547     21549     21548     21550
     21552     21551     21553     21555     21554     21556     21558     21557     21559
     21561     21560     21562     21564     21563     21565     21567     21566     21568
     21570     21569     21571     21573     21572     21574     21576     21575     21577
     21579     21578     21580     21582     21581     21583     21585     21584     21586
     21588     21587     21589     21591     21590     21592     21594     21593     21595
     21597     21596     21598     21600     21599     21601     21603     21602     21604
     21606     21605     21607     21609     21608     21610     21612     21611     21613
     21615     21614     21616     21618     21617     21619     21621     21620     21622
     21624     21623     21625     21627     21626     21628     21630     21629     21631
     21633     21632     21634     21636     21635     21637     21639     21638     21640
     21642     21641     21643     21645     21644     21646     21648     21647     21649
     21651     21650     21652     21654     21653     21655     21657     21656     21658
     21660     21659     21661     21663     21662     21664     21666     21665     21667
     21669     21668     21670     21672     21671     21673     21675     21674     21676
     21678     21677     21679     21681     21680     21682     21684     21683     21685
     21687     21686     21688     21690     21689     21691     21693     21692     21694
     21696     21695     21697     21699     21698     21700     21702     21701     21703
     21705     21704     21706     21708     21707     21709     21711     21710     21712
     21714     21713     21715     21717     21716     21718     21720     21719     21721
     21723     21722     21724     21726     21725     21727     21729     21728     21730
     21732     21731     21733     21735     21734     21736     21738     21737     21739
     21741     21740     21742     21744     21743     21745     21747     21746     21748
     21750     21749     21751     21753     21752     21754     21756     21755     21757
     21759     21758     21760     21762     21761     21763     21765     21764     21766
     21768     21767     21769     21771     21770     21772     21774     21773     21775
     21777     21776     21778     21780     21779     21781     21783     21782     21784
     21786     21785     21787     21789     21788     21790     21792     21791     21793
     21795     21794     21796     21798     21797     21799     21801     21800     21802
     21804     21803     21805     21807     21806     21808     21810     21809     21811
     21813     21812     21814     21816     21815     21817     21819     21818     21820
     21822     21821     21823     21825     21824     21826     21828     21827     21829
     21831     21830     21832     21834     21833     21835     21837     21836     21838
     21840     21839     21841     21843     21842     21844     21846     21845     21847
     21849     21848     21850     21852     21851     21853     21855     21854     21856
     21858     21857     21859     21861     21860     21862     21864     21863     21865
     21867     21866     21868     21870     21869     21871     21873     21872     21874
     21876     21875     21877     21879     21878     21880     21882     21881     21883
     21885     21884     21886     21888     21887     21889     21891     21890     21892
     21894     21893     21895     21897     21896     21898     21900     21899     21901
     21903     21902     21904     21906     21905     21907     21909     21908     21910
     21912     21911     21913     21915     21914     21916     21918     21917     21919
     21921     21920     21922     21924     21923     21925     21927     21926     21928
     21930     21929     21931     21933     21932     21934     21936     21935     21937
     21939     21938     21940     21942     21941     21943     21945     21944     21946
     21948     21947     21949     21951     21950     21952     21954     21953     21955
     21957     21956     21958     21960     21959     21961     21963     21962     21964
     21966     21965     21967     21969     21968     21970     21972     21971     21973
     21975     21974     21976     21978     21977     21979     21981     21980     21982
     21984     21983     21985     21987     21986     21988     21990     21989     21991
     21993     21992     21994     21996     21995     21997     21999     21998     22000
     22002     22001     22003     22005     22004     22006     22008     22007     22009
     22011     22010     22012     22014     22013     22015     22017     22016     22018
     22020     22019     22021     22023     22022     22024     22026     22025     22027
     22029     22028     22030     22032     22031     22033     22035     22034     22036
     22038     22037     22039     22041     22040     22042     22044     22043     22045
     22047     22046     22048     22050     22049     22051     22053     22052     22054
     22056     22055     22057     22059     22058     22060     22062     22061     22063
     22065     22064     22066     22068     22067     22069     22071     22070     22072
     22074     22073     22075     22077     22076     22078     22080     22079     22081
     22083     22082     22084     22086     22085     22087     22089     22088     22090
     22092     22091     22093     22095     22094     22096     22098     22097     22099
     22101     22100     22102     22104     22103     22105     22107     22106     22108
     22110     22109     22111     22113     22112     22114     22116     22115     22117
     22119     22118     22120     22122     22121     22123     22125     22124     22126
     22128     22127     22129     22131     22130     22132     22134     22133     22135
     22137     22136     22138     22140     22139     22141     22143     22142     22144
     22146     22145     22147     22149     22148     22150     22152     22151     22153
     22155     22154     22156     22158     22157     22159     22161     22160     22162
     22164     22163     22165     22167     22166     22168     22170     22169     22171
     22173     22172     22174     22176     22175     22177     22179     22178     22180
     22182     22181     22183     22185     22184     22186     22188     22187     22189
     22191     22190     22192     22194     22193     22195     22197     22196     22198
     22200     22199     22201     22203     22202     22204     22206     22205     22207
     22209     22208     22210     22212     22211     22213     22215     22214     22216
     22218     22217     22219     22221     22220     22222     22224     22223     22225
     22227     22226     22228     22230     22229     22231     22233     22232     22234
     22236     22235     22237     22239     22238     22240     22242     22241     22243
     22245     22244     22246     22248     22247     22249     22251     22250     22252
     22254     22253     22255     22257     22256     22258     22260     22259     22261
     22263     22262     22264     22266     22265     22267     22269     22268     22270
     22272     22271     22273     22275     22274     22276     22278     22277     22279
     22281     22280     22282     22284     22283     22285     22287     22286     22288
     22290     22289     22291     22293     22292     22294     22296     22295     22297
     22299     22298     22300     22302     22301     22303     22305     22304     22306
     22308     22307     22309     22311     22310     22312     22314     22313     22315
     22317     22316     22318     22320     22319     22321     22323     22322     22324
     22326     22325     22327     22329     22328     22330     22332     22331     22333
     22335     22334     22336     22338     22337     22339     22341     22340     22342
     22344     22343     22345     22347     22346     22348     22350     22349     22351
     22353     22352     22354     22356     22355     22357     22359     22358     22360
     22362     22361     22363     22365     22364     22366     22368     22367     22369
     22371     22370     22372     22374     22373     22375     22377     22376     22378
     22380     22379     22381     22383     22382     22384     22386     22385     22387
     22389     22388     22390     22392     22391     22393     22395     22394     22396
     22398     22397     22399     22401     22400     22402     22404     22403     22405
     22407     22406     22408     22410     22409     22411     22413     22412     22414
     22416     22415     22417     22419     22418     22420     22422     22421     22423
     22425     22424     22426     22428     22427     22429     22431     22430     22432
     22434     22433     22435     22437     22436     22438     22440     22439     22441
     22443     22442     22444     22446     22445     22447     22449     22448     22450
     22452     22451     22453     22455     22454     22456     22458     22457     22459
     22461     22460     22462     22464     22463     22465     22467     22466     22468
     22470     22469     22471     22473     22472     22474     22476     22475     22477
     22479     22478     22480     22482     22481     22483     22485     22484     22486
     22488     22487     22489     22491     22490     22492     22494     22493     22495
     22497     22496     22498     22500     22499     22501     22503     22502     22504
     22506     22505     22507     22509     22508     22510     22512     22511     22513
     22515     22514     22516     22518     22517     22519     22521     22520     22522
     22524     22523     22525     22527     22526     22528     22530     22529     22531
     22533     22532     22534     22536     22535     22537     22539     22538     22540
     22542     22541     22543     22545     22544     22546     22548     22547     22549
     22551     22550     22552     22554     22553     22555     22557     22556     22558
     22560     22559     22561     22563     22562     22564     22566     22565     22567
     22569     22568     22570     22572     22571     22573     22575     22574     22576
     22578     22577     22579     22581     22580     22582     22584     22583     22585
     22587     22586     22588     22590     22589     22591     22593     22592     22594
     22596     22595     22597     22599     22598     22600     22602     22601     22603
     22605     22604     22606     22608     22607     22609     22611     22610     22612
     22614     22613     22615     22617     22616     22618     22620     22619     22621
     22623     22622     22624     22626     22625     22627     22629     22628     22630
     22632     22631     22633     22635     22634     22636     22638     22637     22639
     22641     22640     22642     22644     22643     22645     22647     22646     22648
     22650     22649     22651     22653     22652     22654     22656     22655     22657
     22659     22658     22660     22662     22661     22663     22665     22664     22666
     22668     22667     22669     22671     22670     22672     22674     22673     22675
     22677     22676     22678     22680     22679     22681     22683     22682     22684
     22686     22685     22687     22689     22688     22690     22692     22691     22693
     22695     22694     22696     22698     22697     22699     22701     22700     22702
     22704     22703     22705     22707     22706     22708     22710     22709     22711
     22713     22712     22714     22716     22715     22717     22719     22718     22720
     22722     22721     22723     22725     22724     22726     22728     22727     22729
     22731     22730     22732     22734     22733     22735     22737     22736     22738
     22740     22739     22741     22743     22742     22744     22746     22745     22747
     22749     22748     22750     22752     22751     22753     22755     22754     22756
     22758     22757     22759     22761     22760     22762     22764     22763     22765
     22767     22766     22768     22770     22769     22771     22773     22772     22774
     22776     22775     22777     22779     22778     22780     22782     22781     22783
     22785     22784     22786     22788     22787     22789     22791     22790     22792
     22794     22793     22795     22797     22796     22798     22800     22799     22801
     22803     22802     22804     22806     22805     22807     22809     22808     22810
     22812     22811     22813     22815     22814     22816     22818     22817     22819
     22821     22820     22822     22824     22823     22825     22827     22826     22828
     22830     22829     22831     22833     22832     22834     22836     22835     22837
     22839     22838     22840     22842     22841     22843     22845     22844     22846
     22848     22847     22849     22851     22850     22852     22854     22853     22855
     22857     22856     22858     22860     22859     22861     22863     22862     22864
     22866     22865     22867     22869     22868     22870     22872     22871     22873
     22875     22874     22876     22878     22877     22879     22881     22880     22882
     22884     22883     22885     22887     22886     22888     22890     22889     22891
     22893     22892     22894     22896     22895     22897     22899     22898     22900
     22902     22901     22903     22905     22904     22906     22908     22907     22909
     22911     22910     22912     22914     22913     22915     22917     22916     22918
     22920     22919     22921     22923     22922     22924     22926     22925     22927
     22929     22928     22930     22932     22931     22933     22935     22934     22936
     22938     22937     22939     22941     22940     22942     22944     22943     22945
     22947     22946     22948     22950     22949     22951     22953     22952     22954
     22956     22955     22957     22959     22958     22960     22962     22961     22963
     22965     22964     22966     22968     22967     22969     22971     22970     22972
     22974     22973     22975     22977     22976     22978     22980     22979     22981
     22983     22982     22984     22986     22985     22987     22989     22988     22990
     22992     22991     22993     22995     22994     22996     22998     22997     22999
     23001     23000     23002     23004     23003     23005     23007     23006     23008
     23010     23009     23011     23013     23012     23014     23016     23015     23017
     23019     23018     23020     23022     23021     23023     23025     23024     23026
     23028     23027     23029     23031     23030     23032     23034     23033     23035
     23037     23036     23038     23040     23039     23041     23043     23042     23044
     23046     23045     23047     23049     23048     23050     23052     23051     23053
     23055     23054     23056     23058     23057     23059     23061     23060     23062
     23064     23063     23065     23067     23066     23068     23070     23069     23071
     23073     23072     23074     23076     23075     23077     23079     23078     23080
     23082     23081     23083     23085     23084     23086     23088     23087     23089
     23091     23090     23092     23094     23093     23095     23097     23096     23098
     23100     23099     23101     23103     23102     23104     23106     23105     23107
     23109     23108     23110     23112     23111     23113     23115     23114     23116
     23118     23117     23119     23121     23120     23122     23124     23123     23125
     23127     23126     23128     23130     23129     23131     23133     23132     23134
     23136     23135     23137     23139     23138     23140     23142     23141     23143
     23145     23144     23146     23148     23147     23149     23151     23150     23152
     23154     23153     23155     23157     23156     23158     23160     23159     23161
     23163     23162     23164     23166     23165     23167     23169     23168     23170
     23172     23171     23173     23175     23174     23176     23178     23177     23179
     23181     23180     23182     23184     23183     23185     23187     23186     23188
     23190     23189     23191     23193     23192     23194     23196     23195     23197
     23199     23198     23200     23202     23201     23203     23205     23204     23206
     23208     23207     23209     23211     23210     23212     23214     23213     23215
     23217     23216     23218     23220     23219     23221     23223     23222     23224
     23226     23225     23227     23229     23228     23230     23232     23231     23233
     23235     23234     23236     23238     23237     23239     23241     23240     23242
     23244     23243     23245     23247     23246     23248     23250     23249     23251
     23253     23252     23254     23256     23255     23257     23259     23258     23260
     23262     23261     23263     23265     23264     23266     23268     23267     23269
     23271     23270     23272     23274     23273     23275     23277     23276     23278
     23280     23279     23281     23283     23282     23284     23286     23285     23287
     23289     23288     23290     23292     23291     23293     23295     23294     23296
     23298     23297     23299     23301     23300     23302     23304     23303     23305
     23307     23306     23308     23310     23309     23311     23313     23312     23314
     23316     23315     23317     23319     23318     23320     23322     23321     23323
     23325     23324     23326     23328     23327     23329     23331     23330     23332
     23334     23333     23335     23337     23336     23338     23340     23339     23341
     23343     23342     23344     23346     23345     23347     23349     23348     23350
     23352     23351     23353     23355     23354     23356     23358     23357     23359
     23361     23360     23362     23364     23363     23365     23367     23366     23368
     23370     23369     23371     23373     23372     23374     23376     23375     23377
     23379     23378     23380     23382     23381     23383     23385     23384     23386
     23388     23387     23389     23391     23390     23392     23394     23393     23395
     23397     23396     23398     23400     23399     23401     23403     23402     23404
     23406     23405     23407     23409     23408     23410     23412     23411     23413
     23415     23414     23416     23418     23417     23419     23421     23420     23422
     23424     23423     23425     23427     23426     23428     23430     23429     23431
     23433     23432     23434     23436     23435     23437     23439     23438     23440
     23442     23441     23443     23445     23444     23446     23448     23447     23449
     23451     23450     23452     23454     23453     23455     23457     23456     23458
     23460     23459     23461     23463     23462     23464     23466     23465     23467
     23469     23468     23470     23472     23471     23473     23475     23474     23476
     23478     23477     23479     23481     23480     23482     23484     23483     23485
     23487     23486     23488     23490     23489     23491     23493     23492     23494
     23496     23495     23497     23499     23498     23500     23502     23501     23503
     23505     23504     23506     23508     23507     23509     23511     23510     23512
     23514     23513     23515     23517     23516     23518     23520     23519     23521
     23523     23522     23524     23526     23525     23527     23529     23528     23530
     23532     23531     23533     23535     23534     23536     23538     23537     23539
     23541     23540     23542     23544     23543     23545     23547     23546     23548
     23550     23549     23551     23553     23552     23554     23556     23555     23557
     23559     23558     23560     23562     23561     23563     23565     23564     23566
     23568     23567     23569     23571     23570     23572     23574     23573     23575
     23577     23576     23578     23580     23579     23581     23583     23582     23584
     23586     23585     23587     23589     23588     23590     23592     23591     23593
     23595     23594     23596     23598     23597     23599     23601     23600     23602
     23604     23603     23605     23607     23606     23608     23610     23609     23611
     23613     23612     23614     23616     23615     23617     23619     23618     23620
     23622     23621     23623     23625     23624     23626     23628     23627     23629
     23631     23630     23632     23634     23633     23635     23637     23636     23638
     23640     23639     23641     23643     23642     23644     23646     23645     23647
     23649     23648     23650     23652     23651     23653     23655     23654     23656
     23658     23657     23659     23661     23660     23662     23664     23663     23665
     23667     23666     23668     23670     23669     23671     23673     23672     23674
     23676     23675     23677     23679     23678     23680     23682     23681     23683
     23685     23684     23686     23688     23687     23689     23691     23690     23692
     23694     23693     23695     23697     23696     23698     23700     23699     23701
     23703     23702     23704     23706     23705     23707     23709     23708     23710
     23712     23711     23713     23715     23714     23716     23718     23717     23719
     23721     23720     23722     23724     23723     23725     23727     23726     23728
     23730     23729     23731     23733     23732     23734     23736     23735     23737
     23739     23738     23740     23742     23741     23743     23745     23744     23746
     23748     23747     23749     23751     23750     23752     23754     23753     23755
     23757     23756     23758     23760     23759     23761     23763     23762     23764
     23766     23765     23767     23769     23768     23770     23772     23771     23773
     23775     23774     23776     23778     23777     23779     23781     23780     23782
     23784     23783     23785     23787     23786     23788     23790     23789     23791
     23793     23792     23794     23796     23795     23797     23799     23798     23800
     23802     23801     23803     23805     23804     23806     23808     23807     23809
     23811     23810     23812     23814     23813     23815     23817     23816     23818
     23820     23819     23821     23823     23822     23824     23826     23825     23827
     23829     23828     23830     23832     23831     23833     23835     23834     23836
     23838     23837     23839     23841     23840     23842     23844     23843     23845
     23847     23846     23848     23850     23849     23851     23853     23852     23854
     23856     23855     23857     23859     23858     23860     23862     23861     23863
     23865     23864     23866     23868     23867     23869     23871     23870     23872
     23874     23873     23875     23877     23876     23878     23880     23879     23881
     23883     23882     23884     23886     23885     23887     23889     23888     23890
     23892     23891     23893     23895     23894     23896     23898     23897     23899
     23901     23900     23902     23904     23903     23905     23907     23906     23908
     23910     23909     23911     23913     23912     23914     23916     23915     23917
     23919     23918     23920     23922     23921     23923     23925     23924     23926
     23928     23927     23929     23931     23930     23932     23934     23933     23935
     23937     23936     23938     23940     23939     23941     23943     23942     23944
     23946     23945     23947     23949     23948     23950     23952     23951     23953
     23955     23954     23956     23958     23957     23959     23961     23960     23962
     23964     23963     23965     23967     23966     23968     23970     23969     23971
     23973     23972     23974     23976     23975     23977     23979     23978     23980
     23982     23981     23983     23985     23984     23986     23988     23987     23989
     23991     23990     23992     23994     23993     23995     23997     23996     23998
     24000     23999     24001     24003     24002     24004     24006     24005     24007
     24009     24008     24010     24012     24011     24013     24015     24014     24016
     24018     24017     24019     24021     24020     24022     24024     24023     24025
     24027     24026     24028     24030     24029     24031     24033     24032     24034
     24036     24035     24037     24039     24038     24040     24042     24041     24043
     24045     24044     24046     24048     24047     24049     24051     24050     24052
     24054     24053     24055     24057     24056     24058     24060     24059     24061
     24063     24062     24064     24066     24065     24067     24069     24068     24070
     24072     24071     24073     24075     24074     24076     24078     24077     24079
     24081     24080     24082     24084     24083     24085     24087     24086     24088
     24090     24089     24091     24093     24092     24094     24096     24095     24097
     24099     24098     24100     24102     24101     24103     24105     24104     24106
     24108     24107     24109     24111     24110     24112     24114     24113     24115
     24117     24116     24118     24120     24119     24121     24123     24122     24124
     24126     24125     24127     24129     24128     24130     24132     24131     24133
     24135     24134     24136     24138     24137     24139     24141     24140     24142
     24144     24143     24145     24147     24146     24148     24150     24149     24151
     24153     24152     24154     24156     24155     24157     24159     24158     24160
     24162     24161     24163     24165     24164     24166     24168     24167     24169
     24171     24170     24172     24174     24173     24175     24177     24176     24178
     24180     24179     24181     24183     24182     24184     24186     24185     24187
     24189     24188     24190     24192     24191     24193     24195     24194     24196
     24198     24197     24199     24201     24200     24202     24204     24203     24205
     24207     24206     24208     24210     24209     24211     24213     24212     24214
     24216     24215     24217     24219     24218     24220     24222     24221     24223
     24225     24224     24226     24228     24227     24229     24231     24230     24232
     24234     24233     24235     24237     24236     24238     24240     24239     24241
     24243     24242     24244     24246     24245     24247     24249     24248     24250
     24252     24251     24253     24255     24254     24256     24258     24257     24259
     24261     24260     24262     24264     24263     24265     24267     24266     24268
     24270     24269     24271     24273     24272     24274     24276     24275     24277
     24279     24278     24280     24282     24281     24283     24285     24284     24286
     24288     24287     24289     24291     24290     24292     24294     24293     24295
     24297     24296     24298     24300     24299     24301     24303     24302     24304
     24306     24305     24307     24309     24308     24310     24312     24311     24313
     24315     24314     24316     24318     24317     24319     24321     24320     24322
     24324     24323     24325     24327     24326     24328     24330     24329     24331
     24333     24332     24334     24336     24335     24337     24339     24338     24340
     24342     24341     24343     24345     24344     24346     24348     24347     24349
     24351     24350     24352     24354     24353     24355     24357     24356     24358
     24360     24359     24361     24363     24362     24364     24366     24365     24367
     24369     24368     24370     24372     24371     24373     24375     24374     24376
     24378     24377     24379     24381     24380     24382     24384     24383     24385
     24387     24386     24388     24390     24389     24391     24393     24392     24394
     24396     24395     24397     24399     24398     24400     24402     24401     24403
     24405     24404     24406     24408     24407     24409     24411     24410     24412
     24414     24413     24415     24417     24416     24418     24420     24419     24421
     24423     24422     24424     24426     24425     24427     24429     24428     24430
     24432     24431     24433     24435     24434     24436     24438     24437     24439
     24441     24440     24442     24444     24443     24445     24447     24446     24448
     24450     24449     24451     24453     24452     24454     24456     24455     24457
     24459     24458     24460     24462     24461     24463     24465     24464     24466
     24468     24467     24469     24471     24470     24472     24474     24473     24475
     24477     24476     24478     24480     24479     24481     24483     24482     24484
     24486     24485     24487     24489     24488     24490     24492     24491     24493
     24495     24494     24496     24498     24497     24499     24501     24500     24502
     24504     24503     24505     24507     24506     24508     24510     24509     24511
     24513     24512     24514     24516     24515     24517     24519     24518     24520
     24522     24521     24523     24525     24524     24526     24528     24527     24529
     24531     24530     24532     24534     24533     24535     24537     24536     24538
     24540     24539     24541     24543     24542     24544     24546     24545     24547
     24549     24548     24550     24552     24551     24553     24555     24554     24556
     24558     24557     24559     24561     24560     24562     24564     24563     24565
     24567     24566     24568     24570     24569     24571     24573     24572     24574
     24576     24575     24577     24579     24578     24580     24582     24581     24583
     24585     24584     24586     24588     24587     24589     24591     24590     24592
     24594     24593     24595     24597     24596     24598     24600     24599     24601
     24603     24602     24604     24606     24605     24607     24609     24608     24610
     24612     24611     24613     24615     24614     24616     24618     24617     24619
     24621     24620     24622     24624     24623     24625     24627     24626     24628
     24630     24629     24631     24633     24632     24634     24636     24635     24637
     24639     24638     24640     24642     24641     24643     24645     24644     24646
     24648     24647     24649     24651     24650     24652     24654     24653     24655
     24657     24656     24658     24660     24659     24661     24663     24662     24664
     24666     24665     24667     24669     24668     24670     24672     24671     24673
     24675     24674     24676     24678     24677     24679     24681     24680     24682
     24684     24683     24685     24687     24686     24688     24690     24689     24691
     24693     24692     24694     24696     24695     24697     24699     24698     24700
     24702     24701     24703     24705     24704     24706     24708     24707     24709
     24711     24710     24712     24714     24713     24715     24717     24716     24718
     24720     24719     24721     24723     24722     24724     24726     24725     24727
     24729     24728     24730     24732     24731     24733     24735     24734     24736
     24738     24737     24739     24741     24740     24742     24744     24743     24745
     24747     24746     24748     24750     24749     24751     24753     24752     24754
     24756     24755     24757     24759     24758     24760     24762     24761     24763
     24765     24764     24766     24768     24767     24769     24771     24770     24772
     24774     24773     24775     24777     24776     24778     24780     24779     24781
     24783     24782     24784     24786     24785     24787     24789     24788     24790
     24792     24791     24793     24795     24794     24796     24798     24797     24799
     24801     24800     24802     24804     24803     24805     24807     24806     24808
     24810     24809     24811     24813     24812     24814     24816     24815     24817
     24819     24818     24820     24822     24821     24823     24825     24824     24826
     24828     24827     24829     24831     24830     24832     24834     24833     24835
     24837     24836     24838     24840     24839     24841     24843     24842     24844
     24846     24845     24847     24849     24848     24850     24852     24851     24853
     24855     24854     24856     24858     24857     24859     24861     24860     24862
     24864     24863     24865     24867     24866     24868     24870     24869     24871
     24873     24872     24874     24876     24875     24877     24879     24878     24880
     24882     24881     24883     24885     24884     24886     24888     24887     24889
     24891     24890     24892     24894     24893     24895     24897     24896     24898
     24900     24899     24901     24903     24902     24904     24906     24905     24907
     24909     24908     24910     24912     24911     24913     24915     24914     24916
     24918     24917     24919     24921     24920     24922     24924     24923     24925
     24927     24926     24928     24930     24929     24931     24933     24932     24934
     24936     24935     24937     24939     24938     24940     24942     24941     24943
     24945     24944     24946     24948     24947     24949     24951     24950     24952
     24954     24953     24955     24957     24956     24958     24960     24959     24961
     24963     24962     24964     24966     24965     24967     24969     24968     24970
     24972     24971     24973     24975     24974     24976     24978     24977     24979
     24981     24980     24982     24984     24983     24985     24987     24986     24988
     24990     24989     24991     24993     24992     24994     24996     24995     24997
     24999     24998     25000     25002     25001     25003     25005     25004     25006
     25008     25007     25009     25011     25010     25012     25014     25013     25015
     25017     25016     25018     25020     25019     25021     25023     25022     25024
     25026     25025     25027     25029     25028     25030     25032     25031     25033
     25035     25034     25036     25038     25037     25039     25041     25040     25042
     25044     25043     25045     25047     25046     25048     25050     25049     25051
     25053     25052     25054     25056     25055     25057     25059     25058     25060
     25062     25061     25063     25065     25064     25066     25068     25067     25069
     25071     25070     25072     25074     25073     25075     25077     25076     25078
     25080     25079     25081     25083     25082     25084     25086     25085     25087
     25089     25088     25090     25092     25091     25093     25095     25094     25096
     25098     25097     25099     25101     25100     25102     25104     25103     25105
     25107     25106     25108     25110     25109     25111     25113     25112     25114
     25116     25115     25117     25119     25118     25120     25122     25121     25123
     25125     25124     25126     25128     25127     25129     25131     25130     25132
     25134     25133     25135     25137     25136     25138     25140     25139     25141
     25143     25142     25144     25146     25145     25147     25149     25148     25150
     25152     25151     25153     25155     25154     25156     25158     25157     25159
     25161     25160     25162     25164     25163     25165     25167     25166     25168
     25170     25169     25171     25173     25172     25174     25176     25175     25177
     25179     25178     25180     25182     25181     25183     25185     25184     25186
     25188     25187     25189     25191     25190     25192     25194     25193     25195
     25197     25196     25198     25200     25199     25201     25203     25202     25204
     25206     25205     25207     25209     25208     25210     25212     25211     25213
     25215     25214     25216     25218     25217     25219     25221     25220     25222
     25224     25223     25225     25227     25226     25228     25230     25229     25231
     25233     25232     25234     25236     25235     25237     25239     25238     25240
     25242     25241     25243     25245     25244     25246     25248     25247     25249
     25251     25250     25252     25254     25253     25255     25257     25256     25258
     25260     25259     25261     25263     25262     25264     25266     25265     25267
     25269     25268     25270     25272     25271     25273     25275     25274     25276
     25278     25277     25279     25281     25280     25282     25284     25283     25285
     25287     25286     25288     25290     25289     25291     25293     25292     25294
     25296     25295     25297     25299     25298     25300     25302     25301     25303
     25305     25304     25306     25308     25307     25309     25311     25310     25312
     25314     25313     25315     25317     25316     25318     25320     25319     25321
     25323     25322     25324     25326     25325     25327     25329     25328     25330
     25332     25331     25333     25335     25334     25336     25338     25337     25339
     25341     25340     25342     25344     25343     25345     25347     25346     25348
     25350     25349     25351     25353     25352     25354     25356     25355     25357
     25359     25358     25360     25362     25361     25363     25365     25364     25366
     25368     25367     25369     25371     25370     25372     25374     25373     25375
     25377     25376     25378     25380     25379     25381     25383     25382     25384
     25386     25385     25387     25389     25388     25390     25392     25391     25393
     25395     25394     25396     25398     25397     25399     25401     25400     25402
     25404     25403     25405     25407     25406     25408     25410     25409     25411
     25413     25412     25414     25416     25415     25417     25419     25418     25420
     25422     25421     25423     25425     25424     25426     25428     25427     25429
     25431     25430     25432     25434     25433     25435     25437     25436     25438
     25440     25439     25441     25443     25442     25444     25446     25445     25447
     25449     25448     25450     25452     25451     25453     25455     25454     25456
     25458     25457     25459     25461     25460     25462     25464     25463     25465
     25467     25466     25468     25470     25469     25471     25473     25472     25474
     25476     25475     25477     25479     25478     25480     25482     25481     25483
     25485     25484     25486     25488     25487     25489     25491     25490     25492
     25494     25493     25495     25497     25496     25498     25500     25499     25501
     25503     25502     25504     25506     25505     25507     25509     25508     25510
     25512     25511     25513     25515     25514     25516     25518     25517     25519
     25521     25520     25522     25524     25523     25525     25527     25526     25528
     25530     25529     25531     25533     25532     25534     25536     25535     25537
     25539     25538     25540     25542     25541     25543     25545     25544     25546
     25548     25547     25549     25551     25550     25552     25554     25553     25555
     25557     25556     25558     25560     25559     25561     25563     25562     25564
     25566     25565     25567     25569     25568     25570     25572     25571     25573
     25575     25574     25576     25578     25577     25579     25581     25580     25582
     25584     25583     25585     25587     25586     25588     25590     25589     25591
     25593     25592     25594     25596     25595     25597     25599     25598     25600
     25602     25601     25603     25605     25604     25606     25608     25607     25609
     25611     25610     25612     25614     25613     25615     25617     25616     25618
     25620     25619     25621     25623     25622     25624     25626     25625     25627
     25629     25628     25630     25632     25631     25633     25635     25634     25636
     25638     25637     25639     25641     25640     25642     25644     25643     25645
     25647     25646     25648     25650     25649     25651     25653     25652     25654
     25656     25655     25657     25659     25658     25660     25662     25661     25663
     25665     25664     25666     25668     25667     25669     25671     25670     25672
     25674     25673     25675     25677     25676     25678     25680     25679     25681
     25683     25682     25684     25686     25685     25687     25689     25688     25690
     25692     25691     25693     25695     25694     25696     25698     25697     25699
     25701     25700     25702     25704     25703     25705     25707     25706     25708
     25710     25709     25711     25713     25712     25714     25716     25715     25717
     25719     25718     25720     25722     25721     25723     25725     25724     25726
     25728     25727     25729     25731     25730     25732     25734     25733     25735
     25737     25736     25738     25740     25739     25741     25743     25742     25744
     25746     25745     25747     25749     25748     25750     25752     25751     25753
     25755     25754     25756     25758     25757     25759     25761     25760     25762
     25764     25763     25765     25767     25766     25768     25770     25769     25771
     25773     25772     25774     25776     25775     25777     25779     25778     25780
     25782     25781     25783     25785     25784     25786     25788     25787     25789
     25791     25790     25792     25794     25793     25795     25797     25796     25798
     25800     25799     25801     25803     25802     25804     25806     25805     25807
     25809     25808     25810     25812     25811     25813     25815     25814     25816
     25818     25817     25819     25821     25820     25822     25824     25823     25825
     25827     25826     25828     25830     25829     25831     25833     25832     25834
     25836     25835     25837     25839     25838     25840     25842     25841     25843
     25845     25844     25846     25848     25847     25849     25851     25850     25852
     25854     25853     25855     25857     25856     25858     25860     25859     25861
     25863     25862     25864     25866     25865     25867     25869     25868     25870
     25872     25871     25873     25875     25874     25876     25878     25877     25879
     25881     25880     25882     25884     25883     25885     25887     25886     25888
     25890     25889     25891     25893     25892     25894     25896     25895     25897
     25899     25898     25900     25902     25901     25903     25905     25904     25906
     25908     25907     25909     25911     25910     25912     25914     25913     25915
     25917     25916     25918     25920     25919     25921     25923     25922     25924
     25926     25925     25927     25929     25928     25930     25932     25931     25933
     25935     25934     25936     25938     25937     25939     25941     25940     25942
     25944     25943     25945     25947     25946     25948     25950     25949     25951
     25953     25952     25954     25956     25955     25957     25959     25958     25960
     25962     25961     25963     25965     25964     25966     25968     25967     25969
     25971     25970     25972     25974     25973     25975     25977     25976     25978
     25980     25979     25981     25983     25982     25984     25986     25985     25987
     25989     25988     25990     25992     25991     25993     25995     25994     25996
     25998     25997     25999     26001     26000     26002     26004     26003     26005
     26007     26006     26008     26010     26009     26011     26013     26012     26014
     26016     26015     26017     26019     26018     26020     26022     26021     26023
     26025     26024     26026     26028     26027     26029     26031     26030     26032
     26034     26033     26035     26037     26036     26038     26040     26039     26041
     26043     26042     26044     26046     26045     26047     26049     26048     26050
     26052     26051     26053     26055     26054     26056     26058     26057     26059
     26061     26060     26062     26064     26063     26065     26067     26066     26068
     26070     26069     26071     26073     26072     26074     26076     26075     26077
     26079     26078     26080     26082     26081     26083     26085     26084     26086
     26088     26087     26089     26091     26090     26092     26094     26093     26095
     26097     26096     26098     26100     26099     26101     26103     26102     26104
     26106     26105     26107     26109     26108     26110     26112     26111     26113
     26115     26114     26116     26118     26117     26119     26121     26120     26122
     26124     26123     26125     26127     26126     26128     26130     26129     26131
     26133     26132     26134     26136     26135     26137     26139     26138     26140
     26142     26141     26143     26145     26144     26146     26148     26147     26149
     26151     26150     26152     26154     26153     26155     26157     26156     26158
     26160     26159     26161     26163     26162     26164     26166     26165     26167
     26169     26168     26170     26172     26171     26173     26175     26174     26176
     26178     26177     26179     26181     26180     26182     26184     26183     26185
     26187     26186     26188     26190     26189     26191     26193     26192     26194
     26196     26195     26197     26199     26198     26200     26202     26201     26203
     26205     26204     26206     26208     26207     26209     26211     26210     26212
     26214     26213     26215     26217     26216     26218     26220     26219     26221
     26223     26222     26224     26226     26225     26227     26229     26228     26230
     26232     26231     26233     26235     26234     26236     26238     26237     26239
     26241     26240     26242     26244     26243     26245     26247     26246     26248
     26250     26249     26251     26253     26252     26254     26256     26255     26257
     26259     26258     26260     26262     26261     26263     26265     26264     26266
     26268     26267     26269     26271     26270     26272     26274     26273     26275
     26277     26276     26278     26280     26279     26281     26283     26282     26284
     26286     26285     26287     26289     26288     26290     26292     26291     26293
     26295     26294     26296     26298     26297     26299     26301     26300     26302
     26304     26303     26305     26307     26306     26308     26310     26309     26311
     26313     26312     26314     26316     26315     26317     26319     26318     26320
     26322     26321     26323     26325     26324     26326     26328     26327     26329
     26331     26330     26332     26334     26333     26335     26337     26336     26338
     26340     26339     26341     26343     26342     26344     26346     26345     26347
     26349     26348     26350     26352     26351     26353     26355     26354     26356
     26358     26357     26359     26361     26360     26362     26364     26363     26365
     26367     26366     26368     26370     26369     26371     26373     26372     26374
     26376     26375     26377     26379     26378     26380     26382     26381     26383
     26385     26384     26386     26388     26387     26389     26391     26390     26392
     26394     26393     26395     26397     26396     26398     26400     26399     26401
     26403     26402     26404     26406     26405     26407     26409     26408     26410
     26412     26411     26413     26415     26414     26416     26418     26417     26419
     26421     26420     26422     26424     26423     26425     26427     26426     26428
     26430     26429     26431     26433     26432     26434     26436     26435     26437
     26439     26438     26440     26442     26441     26443     26445     26444     26446
     26448     26447     26449     26451     26450     26452     26454     26453     26455
     26457     26456     26458     26460     26459     26461     26463     26462     26464
     26466     26465     26467     26469     26468     26470     26472     26471     26473
     26475     26474     26476     26478     26477     26479     26481     26480     26482
     26484     26483     26485     26487     26486     26488     26490     26489     26491
     26493     26492     26494     26496     26495     26497     26499     26498     26500
     26502     26501     26503     26505     26504     26506     26508     26507     26509
     26511     26510     26512     26514     26513     26515     26517     26516     26518
     26520     26519     26521     26523     26522     26524     26526     26525     26527
     26529     26528     26530     26532     26531     26533     26535     26534     26536
     26538     26537     26539     26541     26540     26542     26544     26543     26545
     26547     26546     26548     26550     26549     26551     26553     26552     26554
     26556     26555     26557     26559     26558     26560     26562     26561     26563
     26565     26564     26566     26568     26567     26569     26571     26570     26572
     26574     26573     26575     26577     26576     26578     26580     26579     26581
     26583     26582     26584     26586     26585     26587     26589     26588     26590
     26592     26591     26593     26595     26594     26596     26598     26597     26599
     26601     26600     26602     26604     26603     26605     26607     26606     26608
     26610     26609     26611     26613     26612     26614     26616     26615     26617
     26619     26618     26620     26622     26621     26623     26625     26624     26626
     26628     26627     26629     26631     26630     26632     26634     26633     26635
     26637     26636     26638     26640     26639     26641     26643     26642     26644
     26646     26645     26647     26649     26648     26650     26652     26651     26653
     26655     26654     26656     26658     26657     26659     26661     26660     26662
     26664     26663     26665     26667     26666     26668     26670     26669     26671
     26673     26672     26674     26676     26675     26677     26679     26678     26680
     26682     26681     26683     26685     26684     26686     26688     26687     26689
     26691     26690     26692     26694     26693     26695     26697     26696     26698
     26700     26699     26701     26703     26702     26704     26706     26705     26707
     26709     26708     26710     26712     26711     26713     26715     26714     26716
     26718     26717     26719     26721     26720     26722     26724     26723     26725
     26727     26726     26728     26730     26729     26731     26733     26732     26734
     26736     26735     26737     26739     26738     26740     26742     26741     26743
     26745     26744     26746     26748     26747     26749     26751     26750     26752
     26754     26753     26755     26757     26756     26758     26760     26759     26761
     26763     26762     26764     26766     26765     26767     26769     26768     26770
     26772     26771     26773     26775     26774     26776     26778     26777     26779
     26781     26780     26782     26784     26783     26785     26787     26786     26788
     26790     26789     26791     26793     26792     26794     26796     26795     26797
     26799     26798     26800     26802     26801     26803     26805     26804     26806
     26808     26807     26809     26811     26810     26812     26814     26813     26815
     26817     26816     26818     26820     26819     26821     26823     26822     26824
     26826     26825     26827     26829     26828     26830     26832     26831     26833
     26835     26834     26836     26838     26837     26839     26841     26840     26842
     26844     26843     26845     26847     26846     26848     26850     26849     26851
     26853     26852     26854     26856     26855     26857     26859     26858     26860
     26862     26861     26863     26865     26864     26866     26868     26867     26869
     26871     26870     26872     26874     26873     26875     26877     26876     26878
     26880     26879     26881     26883     26882     26884     26886     26885     26887
     26889     26888     26890     26892     26891     26893     26895     26894     26896
     26898     26897     26899     26901     26900     26902     26904     26903     26905
     26907     26906     26908     26910     26909     26911     26913     26912     26914
     26916     26915     26917     26919     26918     26920     26922     26921     26923
     26925     26924     26926     26928     26927     26929     26931     26930     26932
     26934     26933     26935     26937     26936     26938     26940     26939     26941
     26943     26942     26944     26946     26945     26947     26949     26948     26950
     26952     26951     26953     26955     26954     26956     26958     26957     26959
     26961     26960     26962     26964     26963     26965     26967     26966     26968
     26970     26969     26971     26973     26972     26974     26976     26975     26977
     26979     26978     26980     26982     26981     26983     26985     26984     26986
     26988     26987     26989     26991     26990     26992     26994     26993     26995
     26997     26996     26998     27000     26999     27001     27003     27002     27004
     27006     27005     27007     27009     27008     27010     27012     27011     27013
     27015     27014     27016     27018     27017     27019     27021     27020     27022
     27024     27023     27025     27027     27026     27028     27030     27029     27031
     27033     27032     27034     27036     27035     27037     27039     27038     27040
     27042     27041     27043     27045     27044     27046     27048     27047     27049
     27051     27050     27052     27054     27053     27055     27057     27056     27058
     27060     27059     27061     27063     27062     27064     27066     27065     27067
     27069     27068     27070     27072     27071     27073     27075     27074     27076
     27078     27077     27079     27081     27080     27082     27084     27083     27085
     27087     27086     27088     27090     27089     27091     27093     27092     27094
     27096     27095     27097     27099     27098     27100     27102     27101     27103
     27105     27104     27106     27108     27107     27109     27111     27110     27112
     27114     27113     27115     27117     27116     27118     27120     27119     27121
     27123     27122     27124     27126     27125     27127     27129     27128     27130
     27132     27131     27133     27135     27134     27136     27138     27137     27139
     27141     27140     27142     27144     27143     27145     27147     27146     27148
     27150     27149     27151     27153     27152     27154     27156     27155     27157
     27159     27158     27160     27162     27161     27163     27165     27164     27166
     27168     27167     27169     27171     27170     27172     27174     27173     27175
     27177     27176     27178     27180     27179     27181     27183     27182     27184
     27186     27185     27187     27189     27188     27190     27192     27191     27193
     27195     27194     27196     27198     27197     27199     27201     27200     27202
     27204     27203     27205     27207     27206     27208     27210     27209     27211
     27213     27212     27214     27216     27215     27217     27219     27218     27220
     27222     27221     27223     27225     27224     27226     27228     27227     27229
     27231     27230     27232     27234     27233     27235     27237     27236     27238
     27240     27239     27241     27243     27242     27244     27246     27245     27247
     27249     27248     27250     27252     27251     27253     27255     27254     27256
     27258     27257     27259     27261     27260     27262     27264     27263     27265
     27267     27266     27268     27270     27269     27271     27273     27272     27274
     27276     27275     27277     27279     27278     27280     27282     27281     27283
     27285     27284     27286     27288     27287     27289     27291     27290     27292
     27294     27293     27295     27297     27296     27298     27300     27299     27301
     27303     27302     27304     27306     27305     27307     27309     27308     27310
     27312     27311     27313     27315     27314     27316     27318     27317     27319
     27321     27320     27322     27324     27323     27325     27327     27326     27328
     27330     27329     27331     27333     27332     27334     27336     27335     27337
     27339     27338     27340     27342     27341     27343     27345     27344     27346
     27348     27347     27349     27351     27350     27352     27354     27353     27355
     27357     27356     27358     27360     27359     27361     27363     27362     27364
     27366     27365     27367     27369     27368     27370     27372     27371     27373
     27375     27374     27376     27378     27377     27379     27381     27380     27382
     27384     27383     27385     27387     27386     27388     27390     27389     27391
     27393     27392     27394     27396     27395     27397     27399     27398     27400
     27402     27401     27403     27405     27404     27406     27408     27407     27409
     27411     27410     27412     27414     27413     27415     27417     27416     27418
     27420     27419     27421     27423     27422     27424     27426     27425     27427
     27429     27428     27430     27432     27431     27433     27435     27434     27436
     27438     27437     27439     27441     27440     27442     27444     27443     27445
     27447     27446     27448     27450     27449     27451     27453     27452     27454
     27456     27455     27457     27459     27458     27460     27462     27461     27463
     27465     27464     27466     27468     27467     27469     27471     27470     27472
     27474     27473     27475     27477     27476     27478     27480     27479     27481
     27483     27482     27484     27486     27485     27487     27489     27488     27490
     27492     27491     27493     27495     27494     27496     27498     27497     27499
     27501     27500     27502     27504     27503     27505     27507     27506     27508
     27510     27509     27511     27513     27512     27514     27516     27515     27517
     27519     27518     27520     27522     27521     27523     27525     27524     27526
     27528     27527     27529     27531     27530     27532     27534     27533     27535
     27537     27536     27538     27540     27539     27541     27543     27542     27544
     27546     27545     27547     27549     27548     27550     27552     27551     27553
     27555     27554     27556     27558     27557     27559     27561     27560     27562
     27564     27563     27565     27567     27566     27568     27570     27569     27571
     27573     27572     27574     27576     27575     27577     27579     27578     27580
     27582     27581     27583     27585     27584     27586     27588     27587     27589
     27591     27590     27592     27594     27593     27595     27597     27596     27598
     27600     27599     27601     27603     27602     27604     27606     27605     27607
     27609     27608     27610     27612     27611     27613     27615     27614     27616
     27618     27617     27619     27621     27620     27622     27624     27623     27625
     27627     27626     27628     27630     27629     27631     27633     27632     27634
     27636     27635     27637     27639     27638     27640     27642     27641     27643
     27645     27644     27646     27648     27647     27649     27651     27650     27652
     27654     27653     27655     27657     27656     27658     27660     27659     27661
     27663     27662     27664     27666     27665     27667     27669     27668     27670
     27672     27671     27673     27675     27674     27676     27678     27677     27679
     27681     27680     27682     27684     27683     27685     27687     27686     27688
     27690     27689     27691     27693     27692     27694     27696     27695     27697
     27699     27698     27700     27702     27701     27703     27705     27704     27706
     27708     27707     27709     27711     27710     27712     27714     27713     27715
     27717     27716     27718     27720     27719     27721     27723     27722     27724
     27726     27725     27727     27729     27728     27730     27732     27731     27733
     27735     27734     27736     27738     27737     27739     27741     27740     27742
     27744     27743     27745     27747     27746     27748     27750     27749     27751
     27753     27752     27754     27756     27755     27757     27759     27758     27760
     27762     27761     27763     27765     27764     27766     27768     27767     27769
     27771     27770     27772     27774     27773     27775     27777     27776     27778
     27780     27779     27781     27783     27782     27784     27786     27785     27787
     27789     27788     27790     27792     27791     27793     27795     27794     27796
     27798     27797     27799     27801     27800     27802     27804     27803     27805
     27807     27806     27808     27810     27809     27811     27813     27812     27814
     27816     27815     27817     27819     27818     27820     27822     27821     27823
     27825     27824     27826     27828     27827     27829     27831     27830     27832
     27834     27833     27835     27837     27836     27838     27840     27839     27841
     27843     27842     27844     27846     27845     27847     27849     27848     27850
     27852     27851     27853     27855     27854     27856     27858     27857     27859
     27861     27860     27862     27864     27863     27865     27867     27866     27868
     27870     27869     27871     27873     27872     27874     27876     27875     27877
     27879     27878     27880     27882     27881     27883     27885     27884     27886
     27888     27887     27889     27891     27890     27892     27894     27893     27895
     27897     27896     27898     27900     27899     27901     27903     27902     27904
     27906     27905     27907     27909     27908     27910     27912     27911     27913
     27915     27914     27916     27918     27917     27919     27921     27920     27922
     27924     27923     27925     27927     27926     27928     27930     27929     27931
     27933     27932     27934     27936     27935     27937     27939     27938     27940
     27942     27941     27943     27945     27944     27946     27948     27947     27949
     27951     27950     27952     27954     27953     27955     27957     27956     27958
     27960     27959     27961     27963     27962     27964     27966     27965     27967
     27969     27968     27970     27972     27971     27973     27975     27974     27976
     27978     27977     27979     27981     27980     27982     27984     27983     27985
     27987     27986     27988     27990     27989     27991     27993     27992     27994
     27996     27995     27997     27999     27998     28000     28002     28001     28003
     28005     28004     28006     28008     28007     28009     28011     28010     28012
     28014     28013     28015     28017     28016     28018     28020     28019     28021
     28023     28022     28024     28026     28025     28027     28029     28028     28030
     28032     28031     28033     28035     28034     28036     28038     28037     28039
     28041     28040     28042     28044     28043     28045     28047     28046     28048
     28050     28049     28051     28053     28052     28054     28056     28055     28057
     28059     28058     28060     28062     28061     28063     28065     28064     28066
     28068     28067     28069     28071     28070     28072     28074     28073     28075
     28077     28076     28078     28080     28079     28081     28083     28082     28084
     28086     28085     28087     28089     28088     28090     28092     28091     28093
     28095     28094     28096     28098     28097     28099     28101     28100     28102
     28104     28103     28105     28107     28106     28108     28110     28109     28111
     28113     28112     28114     28116     28115     28117     28119     28118     28120
     28122     28121     28123     28125     28124     28126     28128     28127     28129
     28131     28130     28132     28134     28133     28135     28137     28136     28138
     28140     28139     28141     28143     28142     28144     28146     28145     28147
     28149     28148     28150     28152     28151     28153     28155     28154     28156
     28158     28157     28159     28161     28160     28162     28164     28163     28165
     28167     28166     28168     28170     28169     28171     28173     28172     28174
     28176     28175     28177     28179     28178     28180     28182     28181     28183
     28185     28184     28186     28188     28187     28189     28191     28190     28192
     28194     28193     28195     28197     28196     28198     28200     28199     28201
     28203     28202     28204     28206     28205     28207     28209     28208     28210
     28212     28211     28213     28215     28214     28216     28218     28217     28219
     28221     28220     28222     28224     28223     28225     28227     28226     28228
     28230     28229     28231     28233     28232     28234     28236     28235     28237
     28239     28238     28240     28242     28241     28243     28245     28244     28246
     28248     28247     28249     28251     28250     28252     28254     28253     28255
     28257     28256     28258     28260     28259     28261     28263     28262     28264
     28266     28265     28267     28269     28268     28270     28272     28271     28273
     28275     28274     28276     28278     28277     28279     28281     28280     28282
     28284     28283     28285     28287     28286     28288     28290     28289     28291
     28293     28292     28294     28296     28295     28297     28299     28298     28300
     28302     28301     28303     28305     28304     28306     28308     28307     28309
     28311     28310     28312     28314     28313     28315     28317     28316     28318
     28320     28319     28321     28323     28322     28324     28326     28325     28327
     28329     28328     28330     28332     28331     28333     28335     28334     28336
     28338     28337     28339     28341     28340     28342     28344     28343     28345
     28347     28346     28348     28350     28349     28351     28353     28352     28354
     28356     28355     28357     28359     28358     28360     28362     28361     28363
     28365     28364     28366     28368     28367     28369     28371     28370     28372
     28374     28373     28375     28377     28376     28378     28380     28379     28381
     28383     28382     28384     28386     28385     28387     28389     28388     28390
     28392     28391     28393     28395     28394     28396     28398     28397     28399
     28401     28400     28402     28404     28403     28405     28407     28406     28408
     28410     28409     28411     28413     28412     28414     28416     28415     28417
     28419     28418     28420     28422     28421     28423     28425     28424     28426
     28428     28427     28429     28431     28430     28432     28434     28433     28435
     28437     28436     28438     28440     28439     28441     28443     28442     28444
     28446     28445     28447     28449     28448     28450     28452     28451     28453
     28455     28454     28456     28458     28457     28459     28461     28460     28462
     28464     28463     28465     28467     28466     28468     28470     28469     28471
     28473     28472     28474     28476     28475     28477     28479     28478     28480
     28482     28481     28483     28485     28484     28486     28488     28487     28489
     28491     28490     28492     28494     28493     28495     28497     28496     28498
     28500     28499     28501     28503     28502     28504     28506     28505     28507
     28509     28508     28510     28512     28511     28513     28515     28514     28516
     28518     28517     28519     28521     28520     28522     28524     28523     28525
     28527     28526     28528     28530     28529     28531     28533     28532     28534
     28536     28535     28537     28539     28538     28540     28542     28541     28543
     28545     28544     28546     28548     28547     28549     28551     28550     28552
     28554     28553     28555     28557     28556     28558     28560     28559     28561
     28563     28562     28564     28566     28565     28567     28569     28568     28570
     28572     28571     28573     28575     28574     28576     28578     28577     28579
     28581     28580     28582     28584     28583     28585     28587     28586     28588
     28590     28589     28591     28593     28592     28594     28596     28595     28597
     28599     28598     28600     28602     28601     28603     28605     28604     28606
     28608     28607     28609     28611     28610     28612     28614     28613     28615
     28617     28616     28618     28620     28619     28621     28623     28622     28624
     28626     28625     28627     28629     28628     28630     28632     28631     28633
     28635     28634     28636     28638     28637     28639     28641     28640     28642
     28644     28643     28645     28647     28646     28648     28650     28649     28651
     28653     28652     28654     28656     28655     28657     28659     28658     28660
     28662     28661     28663     28665     28664     28666     28668     28667     28669
     28671     28670     28672     28674     28673     28675     28677     28676     28678
     28680     28679     28681     28683     28682     28684     28686     28685     28687
     28689     28688     28690     28692     28691     28693     28695     28694     28696
     28698     28697     28699     28701     28700     28702     28704     28703     28705
     28707     28706     28708     28710     28709     28711     28713     28712     28714
     28716     28715     28717     28719     28718     28720     28722     28721     28723
     28725     28724     28726     28728     28727     28729     28731     28730     28732
     28734     28733     28735     28737     28736     28738     28740     28739     28741
     28743     28742     28744     28746     28745     28747     28749     28748     28750
     28752     28751     28753     28755     28754     28756     28758     28757     28759
     28761     28760     28762     28764     28763     28765     28767     28766     28768
     28770     28769     28771     28773     28772     28774     28776     28775     28777
     28779     28778     28780     28782     28781     28783     28785     28784     28786
     28788     28787     28789     28791     28790     28792     28794     28793     28795
     28797     28796     28798     28800     28799     28801     28803     28802     28804
     28806     28805     28807     28809     28808     28810     28812     28811     28813
     28815     28814     28816     28818     28817     28819     28821     28820     28822
     28824     28823     28825     28827     28826     28828     28830     28829     28831
     28833     28832     28834     28836     28835     28837     28839     28838     28840
     28842     28841     28843     28845     28844     28846     28848     28847     28849
     28851     28850     28852     28854     28853     28855     28857     28856     28858
     28860     28859     28861     28863     28862     28864     28866     28865     28867
     28869     28868     28870     28872     28871     28873     28875     28874     28876
     28878     28877     28879     28881     28880     28882     28884     28883     28885
     28887     28886     28888     28890     28889     28891     28893     28892     28894
     28896     28895     28897     28899     28898     28900     28902     28901     28903
     28905     28904     28906     28908     28907     28909     28911     28910     28912
     28914     28913     28915     28917     28916     28918     28920     28919     28921
     28923     28922     28924     28926     28925     28927     28929     28928     28930
     28932     28931     28933     28935     28934     28936     28938     28937     28939
     28941     28940     28942     28944     28943     28945     28947     28946     28948
     28950     28949     28951     28953     28952     28954     28956     28955     28957
     28959     28958     28960     28962     28961     28963     28965     28964     28966
     28968     28967     28969     28971     28970     28972     28974     28973     28975
     28977     28976     28978     28980     28979     28981     28983     28982     28984
     28986     28985     28987     28989     28988     28990     28992     28991     28993
     28995     28994     28996     28998     28997     28999     29001     29000     29002
     29004     29003     29005     29007     29006     29008     29010     29009     29011
     29013     29012     29014     29016     29015     29017     29019     29018     29020
     29022     29021     29023     29025     29024     29026     29028     29027     29029
     29031     29030     29032     29034     29033     29035     29037     29036     29038
     29040     29039     29041     29043     29042     29044     29046     29045     29047
     29049     29048     29050     29052     29051     29053     29055     29054     29056
     29058     29057     29059     29061     29060     29062     29064     29063     29065
     29067     29066     29068     29070     29069     29071     29073     29072     29074
     29076     29075     29077     29079     29078     29080     29082     29081     29083
     29085     29084     29086     29088     29087     29089     29091     29090     29092
     29094     29093     29095     29097     29096     29098     29100     29099     29101
     29103     29102     29104     29106     29105     29107     29109     29108     29110
     29112     29111     29113     29115     29114     29116     29118     29117     29119
     29121     29120     29122     29124     29123     29125     29127     29126     29128
     29130     29129     29131     29133     29132     29134     29136     29135     29137
     29139     29138     29140     29142     29141     29143     29145     29144     29146
     29148     29147     29149     29151     29150     29152     29154     29153     29155
     29157     29156     29158     29160     29159     29161     29163     29162     29164
     29166     29165     29167     29169     29168     29170     29172     29171     29173
     29175     29174     29176     29178     29177     29179     29181     29180     29182
     29184     29183     29185     29187     29186     29188     29190     29189     29191
     29193     29192     29194     29196     29195     29197     29199     29198     29200
     29202     29201     29203     29205     29204     29206     29208     29207     29209
     29211     29210     29212     29214     29213     29215     29217     29216     29218
     29220     29219     29221     29223     29222     29224     29226     29225     29227
     29229     29228     29230     29232     29231     29233     29235     29234     29236
     29238     29237     29239     29241     29240     29242     29244     29243     29245
     29247     29246     29248     29250     29249     29251     29253     29252     29254
     29256     29255     29257     29259     29258     29260     29262     29261     29263
     29265     29264     29266     29268     29267     29269     29271     29270     29272
     29274     29273     29275     29277     29276     29278     29280     29279     29281
     29283     29282     29284     29286     29285     29287     29289     29288     29290
     29292     29291     29293     29295     29294     29296     29298     29297     29299
     29301     29300     29302     29304     29303     29305     29307     29306     29308
     29310     29309     29311     29313     29312     29314     29316     29315     29317
     29319     29318     29320     29322     29321     29323     29325     29324     29326
     29328     29327     29329     29331     29330     29332     29334     29333     29335
     29337     29336     29338     29340     29339     29341     29343     29342     29344
     29346     29345     29347     29349     29348     29350     29352     29351     29353
     29355     29354     29356     29358     29357     29359     29361     29360     29362
     29364     29363     29365     29367     29366     29368     29370     29369     29371
     29373     29372     29374     29376     29375     29377     29379     29378     29380
     29382     29381     29383     29385     29384     29386     29388     29387     29389
     29391     29390     29392     29394     29393     29395     29397     29396     29398
     29400     29399     29401     29403     29402     29404     29406     29405     29407
     29409     29408     29410     29412     29411     29413     29415     29414     29416
     29418     29417     29419     29421     29420     29422     29424     29423     29425
     29427     29426     29428     29430     29429     29431     29433     29432     29434
     29436     29435     29437     29439     29438     29440     29442     29441     29443
     29445     29444     29446     29448     29447     29449     29451     29450     29452
     29454     29453     29455     29457     29456     29458     29460     29459     29461
     29463     29462     29464     29466     29465     29467     29469     29468     29470
     29472     29471     29473     29475     29474     29476     29478     29477     29479
     29481     29480     29482     29484     29483     29485     29487     29486     29488
     29490     29489     29491     29493     29492     29494     29496     29495     29497
     29499     29498     29500     29502     29501     29503     29505     29504     29506
     29508     29507     29509     29511     29510     29512     29514     29513     29515
     29517     29516     29518     29520     29519     29521     29523     29522     29524
     29526     29525     29527     29529     29528     29530     29532     29531     29533
     29535     29534     29536     29538     29537     29539     29541     29540     29542
     29544     29543     29545     29547     29546     29548     29550     29549     29551
     29553     29552     29554     29556     29555     29557     29559     29558     29560
     29562     29561     29563     29565     29564     29566     29568     29567     29569
     29571     29570     29572     29574     29573     29575     29577     29576     29578
     29580     29579     29581     29583     29582     29584     29586     29585     29587
     29589     29588     29590     29592     29591     29593     29595     29594     29596
     29598     29597     29599     29601     29600     29602     29604     29603     29605
     29607     29606     29608     29610     29609     29611     29613     29612     29614
     29616     29615     29617     29619     29618     29620     29622     29621     29623
     29625     29624     29626     29628     29627     29629     29631     29630     29632
     29634     29633     29635     29637     29636     29638     29640     29639     29641
     29643     29642     29644     29646     29645     29647     29649     29648     29650
     29652     29651     29653     29655     29654     29656     29658     29657     29659
     29661     29660     29662     29664     29663     29665     29667     29666     29668
     29670     29669     29671     29673     29672     29674     29676     29675     29677
     29679     29678     29680     29682     29681     29683     29685     29684     29686
     29688     29687     29689     29691     29690     29692     29694     29693     29695
     29697     29696     29698     29700     29699     29701     29703     29702     29704
     29706     29705     29707     29709     29708     29710     29712     29711     29713
     29715     29714     29716     29718     29717     29719     29721     29720     29722
     29724     29723     29725     29727     29726     29728     29730     29729     29731
     29733     29732     29734     29736     29735     29737     29739     29738     29740
     29742     29741     29743     29745     29744     29746     29748     29747     29749
     29751     29750     29752     29754     29753     29755     29757     29756     29758
     29760     29759     29761     29763     29762     29764     29766     29765     29767
     29769     29768     29770     29772     29771     29773     29775     29774     29776
     29778     29777     29779     29781     29780     29782     29784     29783     29785
     29787     29786     29788     29790     29789     29791     29793     29792     29794
     29796     29795     29797     29799     29798     29800     29802     29801     29803
     29805     29804     29806     29808     29807     29809     29811     29810     29812
     29814     29813     29815     29817     29816     29818     29820     29819     29821
     29823     29822     29824     29826     29825     29827     29829     29828     29830
     29832     29831     29833     29835     29834     29836     29838     29837     29839
     29841     29840     29842     29844     29843     29845     29847     29846     29848
     29850     29849     29851     29853     29852     29854     29856     29855     29857
     29859     29858     29860     29862     29861     29863     29865     29864     29866
     29868     29867     29869     29871     29870     29872     29874     29873     29875
     29877     29876     29878     29880     29879     29881     29883     29882     29884
     29886     29885     29887     29889     29888     29890     29892     29891     29893
     29895     29894     29896     29898     29897     29899     29901     29900     29902
     29904     29903     29905     29907     29906     29908     29910     29909     29911
     29913     29912     29914     29916     29915     29917     29919     29918     29920
     29922     29921     29923     29925     29924     29926     29928     29927     29929
     29931     29930     29932     29934     29933     29935     29937     29936     29938
     29940     29939     29941     29943     29942     29944     29946     29945     29947
     29949     29948     29950     29952     29951     29953     29955     29954     29956
     29958     29957     29959     29961     29960     29962     29964     29963     29965
     29967     29966     29968     29970     29969     29971     29973     29972     29974
     29976     29975     29977     29979     29978     29980     29982     29981     29983
     29985     29984     29986     29988     29987     29989     29991     29990     29992
     29994     29993     29995     29997     29996     29998     30000     29999     30001
     30003     30002     30004     30006     30005     30007     30009     30008     30010
     30012     30011     30013     30015     30014     30016     30018     30017     30019
     30021     30020     30022     30024     30023     30025     30027     30026     30028
     30030     30029     30031     30033     30032     30034     30036     30035     30037
     30039     30038     30040     30042     30041     30043     30045     30044     30046
     30048     30047     30049     30051     30050     30052     30054     30053     30055
     30057     30056     30058     30060     30059     30061     30063     30062     30064
     30066     30065     30067     30069     30068     30070     30072     30071     30073
     30075     30074     30076     30078     30077     30079     30081     30080     30082
     30084     30083     30085     30087     30086     30088     30090     30089     30091
     30093     30092     30094     30096     30095     30097     30099     30098     30100
     30102     30101     30103     30105     30104     30106     30108     30107     30109
     30111     30110     30112     30114     30113     30115     30117     30116     30118
     30120     30119     30121     30123     30122     30124     30126     30125     30127
     30129     30128     30130     30132     30131     30133     30135     30134     30136
     30138     30137     30139     30141     30140     30142     30144     30143     30145
     30147     30146     30148     30150     30149     30151     30153     30152     30154
     30156     30155     30157     30159     30158     30160     30162     30161     30163
     30165     30164     30166     30168     30167     30169     30171     30170     30172
     30174     30173     30175     30177     30176     30178     30180     30179     30181
     30183     30182     30184     30186     30185     30187     30189     30188     30190
     30192     30191     30193     30195     30194     30196     30198     30197     30199
     30201     30200     30202     30204     30203     30205     30207     30206     30208
     30210     30209     30211     30213     30212     30214     30216     30215     30217
     30219     30218     30220     30222     30221     30223     30225     30224     30226
     30228     30227     30229     30231     30230     30232     30234     30233     30235
     30237     30236     30238     30240     30239     30241     30243     30242     30244
     30246     30245     30247     30249     30248     30250     30252     30251     30253
     30255     30254     30256     30258     30257     30259     30261     30260     30262
     30264     30263     30265     30267     30266     30268     30270     30269     30271
     30273     30272     30274     30276     30275     30277     30279     30278     30280
     30282     30281     30283     30285     30284     30286     30288     30287     30289
     30291     30290     30292     30294     30293     30295     30297     30296     30298
     30300     30299     30301     30303     30302     30304     30306     30305     30307
     30309     30308     30310     30312     30311     30313     30315     30314     30316
     30318     30317     30319     30321     30320     30322     30324     30323     30325
     30327     30326     30328     30330     30329     30331     30333     30332     30334
     30336     30335     30337     30339     30338     30340     30342     30341     30343
     30345     30344     30346     30348     30347     30349     30351     30350     30352
     30354     30353     30355     30357     30356     30358     30360     30359     30361
     30363     30362     30364     30366     30365     30367     30369     30368     30370
     30372     30371     30373     30375     30374     30376     30378     30377     30379
     30381     30380     30382     30384     30383     30385     30387     30386     30388
     30390     30389     30391     30393     30392     30394     30396     30395     30397
     30399     30398     30400     30402     30401     30403     30405     30404     30406
     30408     30407     30409     30411     30410     30412     30414     30413     30415
     30417     30416     30418     30420     30419     30421     30423     30422     30424
     30426     30425     30427     30429     30428     30430     30432     30431     30433
     30435     30434     30436     30438     30437     30439     30441     30440     30442
     30444     30443     30445     30447     30446     30448     30450     30449     30451
     30453     30452     30454     30456     30455     30457     30459     30458     30460
     30462     30461     30463     30465     30464     30466     30468     30467     30469
     30471     30470     30472     30474     30473     30475     30477     30476     30478
     30480     30479     30481     30483     30482     30484     30486     30485     30487
     30489     30488     30490     30492     30491     30493     30495     30494     30496
     30498     30497     30499     30501     30500     30502     30504     30503     30505
     30507     30506     30508     30510     30509     30511     30513     30512     30514
     30516     30515     30517     30519     30518     30520     30522     30521     30523
     30525     30524     30526     30528     30527     30529     30531     30530     30532
     30534     30533     30535     30537     30536     30538     30540     30539     30541
     30543     30542     30544     30546     30545     30547     30549     30548     30550
     30552     30551     30553     30555     30554     30556     30558     30557     30559
     30561     30560     30562     30564     30563     30565     30567     30566     30568
     30570     30569     30571     30573     30572     30574     30576     30575     30577
     30579     30578     30580     30582     30581     30583     30585     30584     30586
     30588     30587     30589     30591     30590     30592     30594     30593     30595
     30597     30596     30598     30600     30599     30601     30603     30602     30604
     30606     30605     30607     30609     30608     30610     30612     30611     30613
     30615     30614     30616     30618     30617     30619     30621     30620     30622
     30624     30623     30625     30627     30626     30628     30630     30629     30631
     30633     30632     30634     30636     30635     30637     30639     30638     30640
     30642     30641     30643     30645     30644     30646     30648     30647     30649
     30651     30650     30652     30654     30653     30655     30657     30656     30658
     30660     30659     30661     30663     30662     30664     30666     30665     30667
     30669     30668     30670     30672     30671     30673     30675     30674     30676
     30678     30677     30679     30681     30680     30682     30684     30683     30685
     30687     30686     30688     30690     30689     30691     30693     30692     30694
     30696     30695     30697     30699     30698     30700     30702     30701     30703
     30705     30704     30706     30708     30707     30709     30711     30710     30712
     30714     30713     30715     30717     30716     30718     30720     30719     30721
     30723     30722     30724     30726     30725     30727     30729     30728     30730
     30732     30731     30733     30735     30734     30736     30738     30737     30739
     30741     30740     30742     30744     30743     30745     30747     30746     30748
     30750     30749     30751     30753     30752     30754     30756     30755     30757
     30759     30758     30760     30762     30761     30763     30765     30764     30766
     30768     30767     30769     30771     30770     30772     30774     30773     30775
     30777     30776     30778     30780     30779     30781     30783     30782     30784
     30786     30785     30787     30789     30788     30790     30792     30791     30793
     30795     30794     30796     30798     30797     30799     30801     30800     30802
     30804     30803     30805     30807     30806     30808     30810     30809     30811
     30813     30812     30814     30816     30815     30817     30819     30818     30820
     30822     30821     30823     30825     30824     30826     30828     30827     30829
     30831     30830     30832     30834     30833     30835     30837     30836     30838
     30840     30839     30841     30843     30842     30844     30846     30845     30847
     30849     30848     30850     30852     30851     30853     30855     30854     30856
     30858     30857     30859     30861     30860     30862     30864     30863     30865
     30867     30866     30868     30870     30869     30871     30873     30872     30874
     30876     30875     30877     30879     30878     30880     30882     30881     30883
     30885     30884     30886     30888     30887     30889     30891     30890     30892
     30894     30893     30895     30897     30896     30898     30900     30899     30901
     30903     30902     30904     30906     30905     30907     30909     30908     30910
     30912     30911     30913     30915     30914     30916     30918     30917     30919
     30921     30920     30922     30924     30923     30925     30927     30926     30928
     30930     30929     30931     30933     30932     30934     30936     30935     30937
     30939     30938     30940     30942     30941     30943     30945     30944     30946
     30948     30947     30949     30951     30950     30952     30954     30953     30955
     30957     30956     30958     30960     30959     30961     30963     30962     30964
     30966     30965     30967     30969     30968     30970     30972     30971     30973
     30975     30974     30976     30978     30977     30979     30981     30980     30982
     30984     30983     30985     30987     30986     30988     30990     30989     30991
     30993     30992     30994     30996     30995     30997     30999     30998     31000
     31002     31001     31003     31005     31004     31006     31008     31007     31009
     31011     31010     31012     31014     31013     31015     31017     31016     31018
     31020     31019     31021     31023     31022     31024     31026     31025     31027
     31029     31028     31030     31032     31031     31033     31035     31034     31036
     31038     31037     31039     31041     31040     31042     31044     31043     31045
     31047     31046     31048     31050     31049     31051     31053     31052     31054
     31056     31055     31057     31059     31058     31060     31062     31061     31063
     31065     31064     31066     31068     31067     31069     31071     31070     31072
     31074     31073     31075     31077     31076     31078     31080     31079     31081
     31083     31082     31084     31086     31085     31087     31089     31088     31090
     31092     31091     31093     31095     31094     31096     31098     31097     31099
     31101     31100     31102     31104     31103     31105     31107     31106     31108
     31110     31109     31111     31113     31112     31114     31116     31115     31117
     31119     31118     31120     31122     31121     31123     31125     31124     31126
     31128     31127     31129     31131     31130     31132     31134     31133     31135
     31137     31136     31138     31140     31139     31141     31143     31142     31144
     31146     31145     31147     31149     31148     31150     31152     31151     31153
     31155     31154     31156     31158     31157     31159     31161     31160     31162
     31164     31163     31165     31167     31166     31168     31170     31169     31171
     31173     31172     31174     31176     31175     31177     31179     31178     31180
     31182     31181     31183     31185     31184     31186     31188     31187     31189
     31191     31190     31192     31194     31193     31195     31197     31196     31198
     31200     31199     31201     31203     31202     31204     31206     31205     31207
     31209     31208     31210     31212     31211     31213     31215     31214     31216
     31218     31217     31219     31221     31220     31222     31224     31223     31225
     31227     31226     31228     31230     31229     31231     31233     31232     31234
     31236     31235     31237     31239     31238     31240     31242     31241     31243
     31245     31244     31246     31248     31247     31249     31251     31250     31252
     31254     31253     31255     31257     31256     31258     31260     31259     31261
     31263     31262     31264     31266     31265     31267     31269     31268     31270
     31272     31271     31273     31275     31274     31276     31278     31277     31279
     31281     31280     31282     31284     31283     31285     31287     31286     31288
     31290     31289     31291     31293     31292     31294     31296     31295     31297
     31299     31298     31300     31302     31301     31303     31305     31304     31306
     31308     31307     31309     31311     31310     31312     31314     31313     31315
     31317     31316     31318     31320     31319     31321     31323     31322     31324
     31326     31325     31327     31329     31328     31330     31332     31331     31333
     31335     31334     31336     31338     31337     31339     31341     31340     31342
     31344     31343     31345     31347     31346     31348     31350     31349     31351
     31353     31352     31354     31356     31355     31357     31359     31358     31360
     31362     31361     31363     31365     31364     31366     31368     31367     31369
     31371     31370     31372     31374     31373     31375     31377     31376     31378
     31380     31379     31381     31383     31382     31384     31386     31385     31387
     31389     31388     31390     31392     31391     31393     31395     31394     31396
     31398     31397     31399     31401     31400     31402     31404     31403     31405
     31407     31406     31408     31410     31409     31411     31413     31412     31414
     31416     31415     31417     31419     31418     31420     31422     31421     31423
     31425     31424     31426     31428     31427     31429     31431     31430     31432
     31434     31433     31435     31437     31436     31438     31440     31439     31441
     31443     31442     31444     31446     31445     31447     31449     31448     31450
     31452     31451     31453     31455     31454     31456     31458     31457     31459
     31461     31460     31462     31464     31463     31465     31467     31466     31468
     31470     31469     31471     31473     31472     31474     31476     31475     31477
     31479     31478     31480     31482     31481     31483     31485     31484     31486
     31488     31487     31489     31491     31490     31492     31494     31493     31495
     31497     31496     31498     31500     31499     31501     31503     31502     31504
     31506     31505     31507     31509     31508     31510     31512     31511     31513
     31515     31514     31516     31518     31517     31519     31521     31520     31522
     31524     31523     31525     31527     31526     31528     31530     31529     31531
     31533     31532     31534     31536     31535     31537     31539     31538     31540
     31542     31541     31543     31545     31544     31546     31548     31547     31549
     31551     31550     31552     31554     31553     31555     31557     31556     31558
     31560     31559     31561     31563     31562     31564     31566     31565     31567
     31569     31568     31570     31572     31571     31573     31575     31574     31576
     31578     31577     31579     31581     31580     31582     31584     31583     31585
     31587     31586     31588     31590     31589     31591     31593     31592     31594
     31596     31595     31597     31599     31598     31600     31602     31601     31603
     31605     31604     31606     31608     31607     31609     31611     31610     31612
     31614     31613     31615     31617     31616     31618     31620     31619     31621
     31623     31622     31624     31626     31625     31627     31629     31628     31630
     31632     31631     31633     31635     31634     31636     31638     31637     31639
     31641     31640     31642     31644     31643     31645     31647     31646     31648
     31650     31649     31651     31653     31652     31654     31656     31655     31657
     31659     31658     31660     31662     31661     31663     31665     31664     31666
     31668     31667     31669     31671     31670     31672     31674     31673     31675
     31677     31676     31678     31680     31679     31681     31683     31682     31684
     31686     31685     31687     31689     31688     31690     31692     31691     31693
     31695     31694     31696     31698     31697     31699     31701     31700     31702
     31704     31703     31705     31707     31706     31708     31710     31709     31711
     31713     31712     31714     31716     31715     31717     31719     31718     31720
     31722     31721     31723     31725     31724     31726     31728     31727     31729
     31731     31730     31732     31734     31733     31735     31737     31736     31738
     31740     31739     31741     31743     31742     31744     31746     31745     31747
     31749     31748     31750     31752     31751     31753     31755     31754     31756
     31758     31757     31759     31761     31760     31762     31764     31763     31765
     31767     31766     31768     31770     31769     31771     31773     31772     31774
     31776     31775     31777     31779     31778     31780     31782     31781     31783
     31785     31784     31786     31788     31787     31789     31791     31790     31792
     31794     31793     31795     31797     31796     31798     31800     31799     31801
     31803     31802     31804     31806     31805     31807     31809     31808     31810
     31812     31811     31813     31815     31814     31816     31818     31817     31819
     31821     31820     31822     31824     31823     31825     31827     31826     31828
     31830     31829     31831     31833     31832     31834     31836     31835     31837
     31839     31838     31840     31842     31841     31843     31845     31844     31846
     31848     31847     31849     31851     31850     31852     31854     31853     31855
     31857     31856     31858     31860     31859     31861     31863     31862     31864
     31866     31865     31867     31869     31868     31870     31872     31871     31873
     31875     31874     31876     31878     31877     31879     31881     31880     31882
     31884     31883     31885     31887     31886     31888     31890     31889     31891
     31893     31892     31894     31896     31895     31897     31899     31898     31900
     31902     31901     31903     31905     31904     31906     31908     31907     31909
     31911     31910     31912     31914     31913     31915     31917     31916     31918
     31920     31919     31921     31923     31922     31924     31926     31925     31927
     31929     31928     31930     31932     31931     31933     31935     31934     31936
     31938     31937     31939     31941     31940     31942     31944     31943     31945
     31947     31946     31948     31950     31949     31951     31953     31952     31954
     31956     31955     31957     31959     31958     31960     31962     31961     31963
     31965     31964     31966     31968     31967     31969     31971     31970     31972
     31974     31973     31975     31977     31976     31978     31980     31979     31981
     31983     31982     31984     31986     31985     31987     31989     31988     31990
     31992     31991     31993     31995     31994     31996     31998     31997     31999
     32001     32000     32002     32004     32003     32005     32007     32006     32008
     32010     32009     32011     32013     32012     32014     32016     32015     32017
     32019     32018     32020     32022     32021     32023     32025     32024     32026
     32028     32027     32029     32031     32030     32032     32034     32033     32035
     32037     32036     32038     32040     32039     32041     32043     32042     32044
     32046     32045     32047     32049     32048     32050     32052     32051     32053
     32055     32054     32056     32058     32057     32059     32061     32060     32062
     32064     32063     32065     32067     32066     32068     32070     32069     32071
     32073     32072     32074     32076     32075     32077     32079     32078     32080
     32082     32081     32083     32085     32084     32086     32088     32087     32089
     32091     32090     32092     32094     32093     32095     32097     32096     32098
     32100     32099     32101     32103     32102     32104     32106     32105     32107
     32109     32108     32110     32112     32111     32113     32115     32114     32116
     32118     32117     32119     32121     32120     32122     32124     32123     32125
     32127     32126     32128     32130     32129     32131     32133     32132     32134
     32136     32135     32137     32139     32138     32140     32142     32141     32143
     32145     32144     32146     32148     32147     32149     32151     32150     32152
     32154     32153     32155     32157     32156     32158     32160     32159     32161
     32163     32162     32164     32166     32165     32167     32169     32168     32170
     32172     32171     32173     32175     32174     32176     32178     32177     32179
     32181     32180     32182     32184     32183     32185     32187     32186     32188
     32190     32189     32191     32193     32192     32194     32196     32195     32197
     32199     32198     32200     32202     32201     32203     32205     32204     32206
     32208     32207     32209     32211     32210     32212     32214     32213     32215
     32217     32216     32218     32220     32219     32221     32223     32222     32224
     32226     32225     32227     32229     32228     32230     32232     32231     32233
     32235     32234     32236     32238     32237     32239     32241     32240     32242
     32244     32243     32245     32247     32246     32248     32250     32249     32251
     32253     32252     32254     32256     32255     32257     32259     32258     32260
     32262     32261     32263     32265     32264     32266     32268     32267     32269
     32271     32270     32272     32274     32273     32275     32277     32276     32278
     32280     32279     32281     32283     32282     32284     32286     32285     32287
     32289     32288     32290     32292     32291     32293     32295     32294     32296
     32298     32297     32299     32301     32300     32302     32304     32303     32305
     32307     32306     32308     32310     32309     32311     32313     32312     32314
     32316     32315     32317     32319     32318     32320     32322     32321     32323
     32325     32324     32326     32328     32327     32329     32331     32330     32332
     32334     32333     32335     32337     32336     32338     32340     32339     32341
     32343     32342     32344     32346     32345     32347     32349     32348     32350
     32352     32351     32353     32355     32354     32356     32358     32357     32359
     32361     32360     32362     32364     32363     32365     32367     32366     32368
     32370     32369     32371     32373     32372     32374     32376     32375     32377
     32379     32378     32380     32382     32381     32383     32385     32384     32386
     32388     32387     32389     32391     32390     32392     32394     32393     32395
     32397     32396     32398     32400     32399     32401     32403     32402     32404
     32406     32405     32407     32409     32408     32410     32412     32411     32413
     32415     32414     32416     32418     32417     32419     32421     32420     32422
     32424     32423     32425     32427     32426     32428     32430     32429     32431
     32433     32432     32434     32436     32435     32437     32439     32438     32440
     32442     32441     32443     32445     32444     32446     32448     32447     32449
     32451     32450     32452     32454     32453     32455     32457     32456     32458
     32460     32459     32461     32463     32462     32464     32466     32465     32467
     32469     32468     32470     32472     32471     32473     32475     32474     32476
     32478     32477     32479     32481     32480     32482     32484     32483     32485
     32487     32486     32488     32490     32489     32491     32493     32492     32494
     32496     32495     32497     32499     32498     32500     32502     32501     32503
     32505     32504     32506     32508     32507     32509     32511     32510     32512
     32514     32513     32515     32517     32516     32518     32520     32519     32521
     32523     32522     32524     32526     32525     32527     32529     32528     32530
     32532     32531     32533     32535     32534     32536     32538     32537     32539
     32541     32540     32542     32544     32543     32545     32547     32546     32548
     32550     32549     32551     32553     32552     32554     32556     32555     32557
     32559     32558     32560     32562     32561     32563     32565     32564     32566
     32568     32567     32569     32571     32570     32572     32574     32573     32575
     32577     32576     32578     32580     32579     32581     32583     32582     32584
     32586     32585     32587     32589     32588     32590     32592     32591     32593
     32595     32594     32596     32598     32597     32599     32601     32600     32602
     32604     32603     32605     32607     32606     32608     32610     32609     32611
     32613     32612     32614     32616     32615     32617     32619     32618     32620
     32622     32621     32623     32625     32624     32626     32628     32627     32629
     32631     32630     32632     32634     32633     32635     32637     32636     32638
     32640     32639     32641     32643     32642     32644     32646     32645     32647
     32649     32648     32650     32652     32651     32653     32655     32654     32656
     32658     32657     32659     32661     32660     32662     32664     32663     32665
     32667     32666     32668     32670     32669     32671     32673     32672     32674
     32676     32675     32677     32679     32678     32680     32682     32681     32683
     32685     32684     32686     32688     32687     32689     32691     32690     32692
     32694     32693     32695     32697     32696     32698     32700     32699     32701
     32703     32702     32704     32706     32705     32707     32709     32708     32710
     32712     32711     32713     32715     32714     32716     32718     32717     32719
     32721     32720     32722     32724     32723     32725     32727     32726     32728
     32730     32729     32731     32733     32732     32734     32736     32735     32737
     32739     32738     32740     32742     32741     32743     32745     32744     32746
     32748     32747     32749     32751     32750     32752     32754     32753     32755
     32757     32756     32758     32760     32759     32761     32763     32762     32764
     32766     32765     32767     32769     32768     32770     32772     32771     32773
     32775     32774     32776     32778     32777     32779     32781     32780     32782
     32784     32783     32785     32787     32786     32788     32790     32789     32791
     32793     32792     32794     32796     32795     32797     32799     32798     32800
     32802     32801     32803     32805     32804     32806     32808     32807     32809
     32811     32810     32812     32814     32813     32815     32817     32816     32818
     32820     32819     32821     32823     32822     32824     32826     32825     32827
     32829     32828     32830     32832     32831     32833     32835     32834     32836
     32838     32837     32839     32841     32840     32842     32844     32843     32845
     32847     32846     32848     32850     32849     32851     32853     32852     32854
     32856     32855     32857     32859     32858     32860     32862     32861     32863
     32865     32864     32866     32868     32867     32869     32871     32870     32872
     32874     32873     32875     32877     32876     32878     32880     32879     32881
     32883     32882     32884     32886     32885     32887     32889     32888     32890
     32892     32891     32893     32895     32894     32896     32898     32897     32899
     32901     32900     32902     32904     32903     32905     32907     32906     32908
     32910     32909     32911     32913     32912     32914     32916     32915     32917
     32919     32918     32920     32922     32921     32923     32925     32924     32926
     32928     32927     32929     32931     32930     32932     32934     32933     32935
     32937     32936     32938     32940     32939     32941     32943     32942     32944
     32946     32945     32947     32949     32948     32950     32952     32951     32953
     32955     32954     32956     32958     32957     32959     32961     32960     32962
     32964     32963     32965     32967     32966     32968     32970     32969     32971
     32973     32972     32974     32976     32975     32977     32979     32978     32980
     32982     32981     32983     32985     32984     32986     32988     32987     32989
     32991     32990     32992     32994     32993     32995     32997     32996     32998
     33000     32999     33001     33003     33002     33004     33006     33005     33007
     33009     33008     33010     33012     33011     33013     33015     33014     33016
     33018     33017     33019     33021     33020     33022     33024     33023     33025
     33027     33026     33028     33030     33029     33031     33033     33032     33034
     33036     33035     33037     33039     33038     33040     33042     33041     33043
     33045     33044     33046     33048     33047     33049     33051     33050     33052
     33054     33053     33055     33057     33056     33058     33060     33059     33061
     33063     33062     33064     33066     33065     33067     33069     33068     33070
     33072     33071     33073     33075     33074     33076     33078     33077     33079
     33081     33080     33082     33084     33083     33085     33087     33086     33088
     33090     33089     33091     33093     33092     33094     33096     33095     33097
     33099     33098     33100     33102     33101     33103     33105     33104     33106
     33108     33107     33109     33111     33110     33112     33114     33113     33115
     33117     33116     33118     33120     33119     33121     33123     33122     33124
     33126     33125     33127     33129     33128     33130     33132     33131     33133
     33135     33134     33136     33138     33137     33139     33141     33140     33142
     33144     33143     33145     33147     33146     33148     33150     33149     33151
     33153     33152     33154     33156     33155     33157     33159     33158     33160
     33162     33161     33163     33165     33164     33166     33168     33167     33169
     33171     33170     33172     33174     33173     33175     33177     33176     33178
     33180     33179     33181     33183     33182     33184     33186     33185     33187
     33189     33188     33190     33192     33191     33193     33195     33194     33196
     33198     33197     33199     33201     33200     33202     33204     33203     33205
     33207     33206     33208     33210     33209     33211     33213     33212     33214
     33216     33215     33217     33219     33218     33220     33222     33221     33223
     33225     33224     33226     33228     33227     33229     33231     33230     33232
     33234     33233     33235     33237     33236     33238     33240     33239     33241
     33243     33242     33244     33246     33245     33247     33249     33248     33250
     33252     33251     33253     33255     33254     33256     33258     33257     33259
     33261     33260     33262     33264     33263     33265     33267     33266     33268
     33270     33269     33271     33273     33272     33274     33276     33275     33277
     33279     33278     33280     33282     33281     33283     33285     33284     33286
     33288     33287     33289     33291     33290     33292     33294     33293     33295
     33297     33296     33298     33300     33299     33301     33303     33302     33304
     33306     33305     33307     33309     33308     33310     33312     33311     33313
     33315     33314     33316     33318     33317     33319     33321     33320     33322
     33324     33323     33325     33327     33326     33328     33330     33329     33331
     33333     33332     33334     33336     33335     33337     33339     33338     33340
     33342     33341     33343     33345     33344     33346     33348     33347     33349
     33351     33350     33352     33354     33353     33355     33357     33356     33358
     33360     33359     33361     33363     33362     33364     33366     33365     33367
     33369     33368     33370     33372     33371     33373     33375     33374     33376
     33378     33377     33379     33381     33380     33382     33384     33383     33385
     33387     33386     33388     33390     33389     33391     33393     33392     33394
     33396     33395     33397     33399     33398     33400     33402     33401     33403
     33405     33404     33406     33408     33407     33409     33411     33410     33412
     33414     33413     33415     33417     33416     33418     33420     33419     33421
     33423     33422     33424     33426     33425     33427     33429     33428     33430
     33432     33431     33433     33435     33434     33436     33438     33437     33439
     33441     33440     33442     33444     33443     33445     33447     33446     33448
     33450     33449     33451     33453     33452     33454     33456     33455     33457
     33459     33458     33460     33462     33461     33463     33465     33464     33466
     33468     33467     33469     33471     33470     33472     33474     33473     33475
     33477     33476     33478     33480     33479     33481     33483     33482     33484
     33486     33485     33487     33489     33488     33490     33492     33491     33493
     33495     33494     33496     33498     33497     33499     33501     33500     33502
     33504     33503     33505     33507     33506     33508     33510     33509     33511
     33513     33512     33514     33516     33515     33517     33519     33518     33520
     33522     33521     33523     33525     33524     33526     33528     33527     33529
     33531     33530     33532     33534     33533     33535     33537     33536     33538
     33540     33539     33541     33543     33542     33544     33546     33545     33547
     33549     33548     33550     33552     33551     33553     33555     33554     33556
     33558     33557     33559     33561     33560     33562     33564     33563     33565
     33567     33566     33568     33570     33569     33571     33573     33572     33574
     33576     33575     33577     33579     33578     33580     33582     33581     33583
     33585     33584     33586     33588     33587     33589     33591     33590     33592
     33594     33593     33595     33597     33596     33598     33600     33599     33601
     33603     33602     33604     33606     33605     33607     33609     33608     33610
     33612     33611     33613     33615     33614     33616     33618     33617     33619
     33621     33620     33622     33624     33623     33625     33627     33626     33628
     33630     33629     33631     33633     33632     33634     33636     33635     33637
     33639     33638     33640     33642     33641     33643     33645     33644     33646
     33648     33647     33649     33651     33650     33652     33654     33653     33655
     33657     33656     33658     33660     33659     33661     33663     33662     33664
     33666     33665     33667     33669     33668     33670     33672     33671     33673
     33675     33674     33676     33678     33677     33679     33681     33680     33682
     33684     33683     33685     33687     33686     33688     33690     33689     33691
     33693     33692     33694     33696     33695     33697     33699     33698     33700
     33702     33701     33703     33705     33704     33706     33708     33707     33709
     33711     33710     33712     33714     33713     33715     33717     33716     33718
     33720     33719     33721     33723     33722     33724     33726     33725     33727
     33729     33728     33730     33732     33731     33733     33735     33734     33736
     33738     33737     33739     33741     33740     33742     33744     33743     33745
     33747     33746     33748     33750     33749     33751     33753     33752     33754
     33756     33755     33757     33759     33758     33760     33762     33761     33763
     33765     33764     33766     33768     33767     33769     33771     33770     33772
     33774     33773     33775     33777     33776     33778     33780     33779     33781
     33783     33782     33784     33786     33785     33787     33789     33788     33790
     33792     33791     33793     33795     33794     33796     33798     33797     33799
     33801     33800     33802     33804     33803     33805     33807     33806     33808
     33810     33809     33811     33813     33812     33814     33816     33815     33817
     33819     33818     33820     33822     33821     33823     33825     33824     33826
     33828     33827     33829     33831     33830     33832     33834     33833     33835
     33837     33836     33838     33840     33839     33841     33843     33842     33844
     33846     33845     33847     33849     33848     33850     33852     33851     33853
     33855     33854     33856     33858     33857     33859     33861     33860     33862
     33864     33863     33865     33867     33866     33868     33870     33869     33871
     33873     33872     33874     33876     33875     33877     33879     33878     33880
     33882     33881     33883     33885     33884     33886     33888     33887     33889
     33891     33890     33892     33894     33893     33895     33897     33896     33898
     33900     33899     33901     33903     33902     33904     33906     33905     33907
     33909     33908     33910     33912     33911     33913     33915     33914     33916
     33918     33917     33919     33921     33920     33922     33924     33923     33925
     33927     33926     33928     33930     33929     33931     33933     33932     33934
     33936     33935     33937     33939     33938     33940     33942     33941     33943
     33945     33944     33946     33948     33947     33949     33951     33950     33952
     33954     33953     33955     33957     33956     33958     33960     33959     33961
     33963     33962     33964     33966     33965     33967     33969     33968     33970
     33972     33971     33973     33975     33974     33976     33978     33977     33979
     33981     33980     33982     33984     33983     33985     33987     33986     33988
     33990     33989     33991     33993     33992     33994     33996     33995     33997
     33999     33998     34000     34002     34001     34003     34005     34004     34006
     34008     34007     34009     34011     34010     34012     34014     34013     34015
     34017     34016     34018     34020     34019     34021     34023     34022     34024
     34026     34025     34027     34029     34028     34030     34032     34031     34033
     34035     34034     34036     34038     34037     34039     34041     34040     34042
     34044     34043     34045     34047     34046     34048     34050     34049     34051
     34053     34052     34054     34056     34055     34057     34059     34058     34060
     34062     34061     34063     34065     34064     34066     34068     34067     34069
     34071     34070     34072     34074     34073     34075     34077     34076     34078
     34080     34079     34081     34083     34082     34084     34086     34085     34087
     34089     34088     34090     34092     34091     34093     34095     34094     34096
     34098     34097     34099     34101     34100     34102     34104     34103     34105
     34107     34106     34108     34110     34109     34111     34113     34112     34114
     34116     34115     34117     34119     34118     34120     34122     34121     34123
     34125     34124     34126     34128     34127     34129     34131     34130     34132
     34134     34133     34135     34137     34136     34138     34140     34139     34141
     34143     34142     34144     34146     34145     34147     34149     34148     34150
     34152     34151     34153     34155     34154     34156     34158     34157     34159
     34161     34160     34162     34164     34163     34165     34167     34166     34168
     34170     34169     34171     34173     34172     34174     34176     34175     34177
     34179     34178     34180     34182     34181     34183     34185     34184     34186
     34188     34187     34189     34191     34190     34192     34194     34193     34195
     34197     34196     34198     34200     34199     34201     34203     34202     34204
     34206     34205     34207     34209     34208     34210     34212     34211     34213
     34215     34214     34216     34218     34217     34219     34221     34220     34222
     34224     34223     34225     34227     34226     34228     34230     34229     34231
     34233     34232     34234     34236     34235     34237     34239     34238     34240
     34242     34241     34243     34245     34244     34246     34248     34247     34249
     34251     34250     34252     34254     34253     34255     34257     34256     34258
     34260     34259     34261     34263     34262     34264     34266     34265     34267
     34269     34268     34270     34272     34271     34273     34275     34274     34276
     34278     34277     34279     34281     34280     34282     34284     34283     34285
     34287     34286     34288     34290     34289     34291     34293     34292     34294
     34296     34295     34297     34299     34298     34300     34302     34301     34303
     34305     34304     34306     34308     34307     34309     34311     34310     34312
     34314     34313     34315     34317     34316     34318     34320     34319     34321
     34323     34322     34324     34326     34325     34327     34329     34328     34330
     34332     34331     34333     34335     34334     34336     34338     34337     34339
     34341     34340     34342     34344     34343     34345     34347     34346     34348
     34350     34349     34351     34353     34352     34354     34356     34355     34357
     34359     34358     34360     34362     34361     34363     34365     34364     34366
     34368     34367     34369     34371     34370     34372     34374     34373     34375
     34377     34376     34378     34380     34379     34381     34383     34382     34384
     34386     34385     34387     34389     34388     34390     34392     34391     34393
     34395     34394     34396     34398     34397     34399     34401     34400     34402
     34404     34403     34405     34407     34406     34408     34410     34409     34411
     34413     34412     34414     34416     34415     34417     34419     34418     34420
     34422     34421     34423     34425     34424     34426     34428     34427     34429
     34431     34430     34432     34434     34433     34435     34437     34436     34438
     34440     34439     34441     34443     34442     34444     34446     34445     34447
     34449     34448     34450     34452     34451     34453     34455     34454     34456
     34458     34457     34459     34461     34460     34462     34464     34463     34465
     34467     34466     34468     34470     34469     34471     34473     34472     34474
     34476     34475     34477     34479     34478     34480     34482     34481     34483
     34485     34484     34486     34488     34487     34489     34491     34490     34492
     34494     34493     34495     34497     34496     34498     34500     34499     34501
     34503     34502     34504     34506     34505     34507     34509     34508     34510
     34512     34511     34513     34515     34514     34516     34518     34517     34519
     34521     34520     34522     34524     34523     34525     34527     34526     34528
     34530     34529     34531     34533     34532     34534     34536     34535     34537
     34539     34538     34540     34542     34541     34543     34545     34544     34546
     34548     34547     34549     34551     34550     34552     34554     34553     34555
     34557     34556     34558     34560     34559     34561     34563     34562     34564
     34566     34565     34567     34569     34568     34570     34572     34571     34573
     34575     34574     34576     34578     34577     34579     34581     34580     34582
     34584     34583     34585     34587     34586     34588     34590     34589     34591
     34593     34592     34594     34596     34595     34597     34599     34598     34600
     34602     34601     34603     34605     34604     34606     34608     34607     34609
     34611     34610     34612     34614     34613     34615     34617     34616     34618
     34620     34619     34621     34623     34622     34624     34626     34625     34627
     34629     34628     34630     34632     34631     34633     34635     34634     34636
     34638     34637     34639     34641     34640     34642     34644     34643     34645
     34647     34646     34648     34650     34649     34651     34653     34652     34654
     34656     34655     34657     34659     34658     34660     34662     34661     34663
     34665     34664     34666     34668     34667     34669     34671     34670     34672
     34674     34673     34675     34677     34676     34678     34680     34679     34681
     34683     34682     34684     34686     34685     34687     34689     34688     34690
     34692     34691     34693     34695     34694     34696     34698     34697     34699
     34701     34700     34702     34704     34703     34705     34707     34706     34708
     34710     34709     34711     34713     34712     34714     34716     34715     34717
     34719     34718     34720     34722     34721     34723     34725     34724     34726
     34728     34727     34729     34731     34730     34732     34734     34733     34735
     34737     34736     34738     34740     34739     34741     34743     34742     34744
     34746     34745     34747     34749     34748     34750     34752     34751     34753
     34755     34754     34756     34758     34757     34759     34761     34760     34762
     34764     34763     34765     34767     34766     34768     34770     34769     34771
     34773     34772     34774     34776     34775     34777     34779     34778     34780
     34782     34781     34783     34785     34784     34786     34788     34787     34789
     34791     34790     34792     34794     34793     34795     34797     34796     34798
     34800     34799     34801     34803     34802     34804     34806     34805     34807
     34809     34808     34810     34812     34811     34813     34815     34814     34816
     34818     34817     34819     34821     34820     34822     34824     34823     34825
     34827     34826     34828     34830     34829     34831     34833     34832     34834
     34836     34835     34837     34839     34838     34840     34842     34841     34843
     34845     34844     34846     34848     34847     34849     34851     34850     34852
     34854     34853     34855     34857     34856     34858     34860     34859     34861
     34863     34862     34864     34866     34865     34867     34869     34868     34870
     34872     34871     34873     34875     34874     34876     34878     34877     34879
     34881     34880     34882     34884     34883     34885     34887     34886     34888
     34890     34889     34891     34893     34892     34894     34896     34895     34897
     34899     34898     34900     34902     34901     34903     34905     34904     34906
     34908     34907     34909     34911     34910     34912     34914     34913     34915
     34917     34916     34918     34920     34919     34921     34923     34922     34924
     34926     34925     34927     34929     34928     34930     34932     34931     34933
     34935     34934     34936     34938     34937     34939     34941     34940     34942
     34944     34943     34945     34947     34946     34948     34950     34949     34951
     34953     34952     34954     34956     34955     34957     34959     34958     34960
     34962     34961     34963     34965     34964     34966     34968     34967     34969
     34971     34970     34972     34974     34973     34975     34977     34976     34978
     34980     34979     34981     34983     34982     34984     34986     34985     34987
     34989     34988     34990     34992     34991     34993     34995     34994     34996
     34998     34997     34999     35001     35000     35002     35004     35003     35005
     35007     35006     35008     35010     35009     35011     35013     35012     35014
     35016     35015     35017     35019     35018     35020     35022     35021     35023
     35025     35024     35026     35028     35027     35029     35031     35030     35032
     35034     35033     35035     35037     35036     35038     35040     35039     35041
     35043     35042     35044     35046     35045     35047     35049     35048     35050
     35052     35051     35053     35055     35054     35056     35058     35057     35059
     35061     35060     35062     35064     35063     35065     35067     35066     35068
     35070     35069     35071     35073     35072     35074     35076     35075     35077
     35079     35078     35080     35082     35081     35083     35085     35084     35086
     35088     35087     35089     35091     35090     35092     35094     35093     35095
     35097     35096     35098     35100     35099     35101     35103     35102     35104
     35106     35105     35107     35109     35108     35110     35112     35111     35113
     35115     35114     35116     35118     35117     35119     35121     35120     35122
     35124     35123     35125     35127     35126     35128     35130     35129     35131
     35133     35132     35134     35136     35135     35137     35139     35138     35140
     35142     35141     35143     35145     35144     35146     35148     35147     35149
     35151     35150     35152     35154     35153     35155     35157     35156     35158
     35160     35159     35161     35163     35162     35164     35166     35165     35167
     35169     35168     35170     35172     35171     35173     35175     35174     35176
     35178     35177     35179     35181     35180     35182     35184     35183     35185
     35187     35186     35188     35190     35189     35191     35193     35192     35194
     35196     35195     35197     35199     35198     35200     35202     35201     35203
     35205     35204     35206     35208     35207     35209     35211     35210     35212
     35214     35213     35215     35217     35216     35218     35220     35219     35221
     35223     35222     35224     35226     35225     35227     35229     35228     35230
     35232     35231     35233     35235     35234     35236     35238     35237     35239
     35241     35240     35242     35244     35243     35245     35247     35246     35248
     35250     35249     35251     35253     35252     35254     35256     35255     35257
     35259     35258     35260     35262     35261     35263     35265     35264     35266
     35268     35267     35269     35271     35270     35272     35274     35273     35275
     35277     35276     35278     35280     35279     35281     35283     35282     35284
     35286     35285     35287     35289     35288     35290     35292     35291     35293
     35295     35294     35296     35298     35297     35299     35301     35300     35302
     35304     35303     35305     35307     35306     35308     35310     35309     35311
     35313     35312     35314     35316     35315     35317     35319     35318     35320
     35322     35321     35323     35325     35324     35326     35328     35327     35329
     35331     35330     35332     35334     35333     35335     35337     35336     35338
     35340     35339     35341     35343     35342     35344     35346     35345     35347
     35349     35348     35350     35352     35351     35353     35355     35354     35356
     35358     35357     35359     35361     35360     35362     35364     35363     35365
     35367     35366     35368     35370     35369     35371     35373     35372     35374
     35376     35375     35377     35379     35378     35380     35382     35381     35383
     35385     35384     35386     35388     35387     35389     35391     35390     35392
     35394     35393     35395     35397     35396     35398     35400     35399     35401
     35403     35402     35404     35406     35405     35407     35409     35408     35410
     35412     35411     35413     35415     35414     35416     35418     35417     35419
     35421     35420     35422     35424     35423     35425     35427     35426     35428
     35430     35429     35431     35433     35432     35434     35436     35435     35437
     35439     35438     35440     35442     35441     35443     35445     35444     35446
     35448     35447     35449     35451     35450     35452     35454     35453     35455
     35457     35456     35458     35460     35459     35461     35463     35462     35464
     35466     35465     35467     35469     35468     35470     35472     35471     35473
     35475     35474     35476     35478     35477     35479     35481     35480     35482
     35484     35483     35485     35487     35486     35488     35490     35489     35491
     35493     35492     35494     35496     35495     35497     35499     35498     35500
     35502     35501     35503     35505     35504     35506     35508     35507     35509
     35511     35510     35512     35514     35513     35515     35517     35516     35518
     35520     35519     35521     35523     35522     35524     35526     35525     35527
     35529     35528     35530     35532     35531     35533     35535     35534     35536
     35538     35537     35539     35541     35540     35542     35544     35543     35545
     35547     35546     35548     35550     35549     35551     35553     35552     35554
     35556     35555     35557     35559     35558     35560     35562     35561     35563
     35565     35564     35566     35568     35567     35569     35571     35570     35572
     35574     35573     35575     35577     35576     35578     35580     35579     35581
     35583     35582     35584     35586     35585     35587     35589     35588     35590
     35592     35591     35593     35595     35594     35596     35598     35597     35599
     35601     35600     35602     35604     35603     35605     35607     35606     35608
     35610     35609     35611     35613     35612     35614     35616     35615     35617
     35619     35618     35620     35622     35621     35623     35625     35624     35626
     35628     35627     35629     35631     35630     35632     35634     35633     35635
     35637     35636     35638     35640     35639     35641     35643     35642     35644
     35646     35645     35647     35649     35648     35650     35652     35651     35653
     35655     35654     35656     35658     35657     35659     35661     35660     35662
     35664     35663     35665     35667     35666     35668     35670     35669     35671
     35673     35672     35674     35676     35675     35677     35679     35678     35680
     35682     35681     35683     35685     35684     35686     35688     35687     35689
     35691     35690     35692     35694     35693     35695     35697     35696     35698
     35700     35699     35701     35703     35702     35704     35706     35705     35707
     35709     35708     35710     35712     35711     35713     35715     35714     35716
     35718     35717     35719     35721     35720     35722     35724     35723     35725
     35727     35726     35728     35730     35729     35731     35733     35732     35734
     35736     35735     35737     35739     35738     35740     35742     35741     35743
     35745     35744     35746     35748     35747     35749     35751     35750     35752
     35754     35753     35755     35757     35756     35758     35760     35759     35761
     35763     35762     35764     35766     35765     35767     35769     35768     35770
     35772     35771     35773     35775     35774     35776     35778     35777     35779
     35781     35780     35782     35784     35783     35785     35787     35786     35788
     35790     35789     35791     35793     35792     35794     35796     35795     35797
     35799     35798     35800     35802     35801     35803     35805     35804     35806
     35808     35807     35809     35811     35810     35812     35814     35813     35815
     35817     35816     35818     35820     35819     35821     35823     35822     35824
     35826     35825     35827     35829     35828     35830     35832     35831     35833
     35835     35834     35836     35838     35837     35839     35841     35840     35842
     35844     35843     35845     35847     35846     35848     35850     35849     35851
     35853     35852     35854     35856     35855     35857     35859     35858     35860
     35862     35861     35863     35865     35864     35866     35868     35867     35869
     35871     35870     35872     35874     35873     35875     35877     35876     35878
     35880     35879     35881     35883     35882     35884     35886     35885     35887
     35889     35888     35890     35892     35891     35893     35895     35894     35896
     35898     35897     35899     35901     35900     35902     35904     35903     35905
     35907     35906     35908     35910     35909     35911     35913     35912     35914
     35916     35915     35917     35919     35918     35920     35922     35921     35923
     35925     35924     35926     35928     35927     35929     35931     35930     35932
     35934     35933     35935     35937     35936     35938     35940     35939     35941
     35943     35942     35944     35946     35945     35947     35949     35948     35950
     35952     35951     35953     35955     35954     35956     35958     35957     35959
     35961     35960     35962     35964     35963     35965     35967     35966     35968
     35970     35969     35971     35973     35972     35974     35976     35975     35977
     35979     35978     35980     35982     35981     35983     35985     35984     35986
     35988     35987     35989     35991     35990     35992     35994     35993     35995
     35997     35996     35998     36000     35999     36001     36003     36002     36004
     36006     36005     36007     36009     36008     36010     36012     36011     36013
     36015     36014     36016     36018     36017     36019     36021     36020     36022
     36024     36023     36025     36027     36026     36028     36030     36029     36031
     36033     36032     36034     36036     36035     36037     36039     36038     36040
     36042     36041     36043     36045     36044     36046     36048     36047     36049
     36051     36050     36052     36054     36053     36055     36057     36056     36058
     36060     36059     36061     36063     36062     36064     36066     36065     36067
     36069     36068     36070     36072     36071     36073     36075     36074     36076
     36078     36077     36079     36081     36080     36082     36084     36083     36085
     36087     36086     36088     36090     36089     36091     36093     36092     36094
     36096     36095     36097     36099     36098     36100     36102     36101     36103
     36105     36104     36106     36108     36107     36109     36111     36110     36112
     36114     36113     36115     36117     36116     36118     36120     36119     36121
     36123     36122     36124     36126     36125     36127     36129     36128     36130
     36132     36131     36133     36135     36134     36136     36138     36137     36139
     36141     36140     36142     36144     36143     36145     36147     36146     36148
     36150     36149     36151     36153     36152     36154     36156     36155     36157
     36159     36158     36160     36162     36161     36163     36165     36164     36166
     36168     36167     36169     36171     36170     36172     36174     36173     36175
     36177     36176     36178     36180     36179     36181     36183     36182     36184
     36186     36185     36187     36189     36188     36190     36192     36191     36193
     36195     36194     36196     36198     36197     36199     36201     36200     36202
     36204     36203     36205     36207     36206     36208     36210     36209     36211
     36213     36212     36214     36216     36215     36217     36219     36218     36220
     36222     36221     36223     36225     36224     36226     36228     36227     36229
     36231     36230     36232     36234     36233     36235     36237     36236     36238
     36240     36239     36241     36243     36242     36244     36246     36245     36247
     36249     36248     36250     36252     36251     36253     36255     36254     36256
     36258     36257     36259     36261     36260     36262     36264     36263     36265
     36267     36266     36268     36270     36269     36271     36273     36272     36274
     36276     36275     36277     36279     36278     36280     36282     36281     36283
     36285     36284     36286     36288     36287     36289     36291     36290     36292
     36294     36293     36295     36297     36296     36298     36300     36299     36301
     36303     36302     36304     36306     36305     36307     36309     36308     36310
     36312     36311     36313     36315     36314     36316     36318     36317     36319
     36321     36320     36322     36324     36323     36325     36327     36326     36328
     36330     36329     36331     36333     36332     36334     36336     36335     36337
     36339     36338     36340     36342     36341     36343     36345     36344     36346
     36348     36347     36349     36351     36350     36352     36354     36353     36355
     36357     36356     36358     36360     36359     36361     36363     36362     36364
     36366     36365     36367     36369     36368     36370     36372     36371     36373
     36375     36374     36376     36378     36377     36379     36381     36380     36382
     36384     36383     36385     36387     36386     36388     36390     36389     36391
     36393     36392     36394     36396     36395     36397     36399     36398     36400
     36402     36401     36403     36405     36404     36406     36408     36407     36409
     36411     36410     36412     36414     36413     36415     36417     36416     36418
     36420     36419     36421     36423     36422     36424     36426     36425     36427
     36429     36428     36430     36432     36431     36433     36435     36434     36436
     36438     36437     36439     36441     36440     36442     36444     36443     36445
     36447     36446     36448     36450     36449     36451     36453     36452     36454
     36456     36455     36457     36459     36458     36460     36462     36461     36463
     36465     36464     36466     36468     36467     36469     36471     36470     36472
     36474     36473     36475     36477     36476     36478     36480     36479     36481
     36483     36482     36484     36486     36485     36487     36489     36488     36490
     36492     36491     36493     36495     36494     36496     36498     36497     36499
     36501     36500     36502     36504     36503     36505     36507     36506     36508
     36510     36509     36511     36513     36512     36514     36516     36515     36517
     36519     36518     36520     36522     36521     36523     36525     36524     36526
     36528     36527     36529     36531     36530     36532     36534     36533     36535
     36537     36536     36538     36540     36539     36541     36543     36542     36544
     36546     36545     36547     36549     36548     36550     36552     36551     36553
     36555     36554     36556     36558     36557     36559     36561     36560     36562
     36564     36563     36565     36567     36566     36568     36570     36569     36571
     36573     36572     36574     36576     36575     36577     36579     36578     36580
     36582     36581     36583     36585     36584     36586     36588     36587     36589
     36591     36590     36592     36594     36593     36595     36597     36596     36598
     36600     36599     36601     36603     36602     36604     36606     36605     36607
     36609     36608     36610     36612     36611     36613     36615     36614     36616
     36618     36617     36619     36621     36620     36622     36624     36623     36625
     36627     36626     36628     36630     36629     36631     36633     36632     36634
     36636     36635     36637     36639     36638     36640     36642     36641     36643
     36645     36644     36646     36648     36647     36649     36651     36650     36652
     36654     36653     36655     36657     36656     36658     36660     36659     36661
     36663     36662     36664     36666     36665     36667     36669     36668     36670
     36672     36671     36673     36675     36674     36676     36678     36677     36679
     36681     36680     36682     36684     36683     36685     36687     36686     36688
     36690     36689     36691     36693     36692     36694     36696     36695     36697
     36699     36698     36700     36702     36701     36703     36705     36704     36706
     36708     36707     36709     36711     36710     36712     36714     36713     36715
     36717     36716     36718     36720     36719     36721     36723     36722     36724
     36726     36725     36727     36729     36728     36730     36732     36731     36733
     36735     36734     36736     36738     36737     36739     36741     36740     36742
     36744     36743     36745     36747     36746     36748     36750     36749     36751
     36753     36752     36754     36756     36755     36757     36759     36758     36760
     36762     36761     36763     36765     36764     36766     36768     36767     36769
     36771     36770     36772     36774     36773     36775     36777     36776     36778
     36780     36779     36781     36783     36782     36784     36786     36785     36787
     36789     36788     36790     36792     36791     36793     36795     36794     36796
     36798     36797     36799     36801     36800     36802     36804     36803     36805
     36807     36806     36808     36810     36809     36811     36813     36812     36814
     36816     36815     36817     36819     36818     36820     36822     36821     36823
     36825     36824     36826     36828     36827     36829     36831     36830     36832
     36834     36833     36835     36837     36836     36838     36840     36839     36841
     36843     36842     36844     36846     36845     36847     36849     36848     36850

     45998 !NPHI: dihedrals
         1         5         7         8         1         5         7         9
         1         5         7        10         1         5        15        16
         1         5        15        17         2         1         5         6
         2         1         5         7         2         1         5        15
         3         1         5         6         3         1         5         7
         3         1         5        15         4         1         5         6
         4         1         5         7         4         1         5        15
         5         7        10        11         5         7        10        12
         6         5         7         8         6         5         7         9
         6         5         7        10         6         5        15        16
         6         5        15        17         7         5        15        16
         7         5        15        17         7        10        12        13
         7        10        12        14         8         7         5        15
         8         7        10        11         8         7        10        12
         9         7         5        15         9         7        10        11
         9         7        10        12        10         7         5        15
        11        10        12        13        11        10        12        14
        18        22        24        25        18        22        24        26
        18        22        24        27        18        22        32        33
        18        22        32        34        19        18        22        23
        19        18        22        24        19        18        22        32
        20        18        22        23        20        18        22        24
        20        18        22        32        21        18        22        23
        21        18        22        24        21        18        22        32
        22        24        27        28        22        24        27        29
        23        22        24        25        23        22        24        26
        23        22        24        27        23        22        32        33
        23        22        32        34        24        22        32        33
        24        22        32        34        24        27        29        30
        24        27        29        31        25        24        22        32
        25        24        27        28        25        24        27        29
        26        24        22        32        26        24        27        28
        26        24        27        29        27        24        22        32
        28        27        29        30        28        27        29        31
        35        39        41        42        35        39        41        43
        35        39        41        44        35        39        59        60
        35        39        59        61        36        35        39        40
        36        35        39        41        36        35        39        59
        37        35        39        40        37        35        39        41
        37        35        39        59        38        35        39        40
        38        35        39        41        38        35        39        59
        39        41        44        45        39        41        44        46
        39        41        44        47        40        39        41        42
        40        39        41        43        40        39        41        44
        40        39        59        60        40        39        59        61
        41        39        59        60        41        39        59        61
        41        44        47        48        41        44        47        49
        41        44        47        50        42        41        39        59
        42        41        44        45        42        41        44        46
        42        41        44        47        43        41        39        59
        43        41        44        45        43        41        44        46
        43        41        44        47        44        41        39        59
        44        47        50        51        44        47        50        52
        45        44        47        48        45        44        47        49
        45        44        47        50        46        44        47        48
        46        44        47        49        46        44        47        50
        47        50        52        53        47        50        52        56
        48        47        50        51        48        47        50        52
        49        47        50        51        49        47        50        52
        50        52        53        54        50        52        53        55
        50        52        56        57        50        52        56        58
        51        50        52        53        51        50        52        56
        53        52        56        57        53        52        56        58
        54        53        52        56        55        53        52        56
        62        65        73        70        62        65        73        74
        62        65        73        75        62        68        70        71
        62        68        70        72        62        68        70        73
        62        68        76        77        62        68        76        78
        63        62        65        66        63        62        65        67
        63        62        65        73        63        62        68        69
        63        62        68        70        63        62        68        76
        64        62        65        66        64        62        65        67
        64        62        65        73        64        62        68        69
        64        62        68        70        64        62        68        76
        65        62        68        69        65        62        68        70
        65        62        68        76        65        73        70        68
        65        73        70        71        65        73        70        72
        66        65        62        68        66        65        73        70
        66        65        73        74        66        65        73        75
        67        65        62        68        67        65        73        70
        67        65        73        74        67        65        73        75
        68        62        65        73        68        70        73        74
        68        70        73        75        69        68        70        71
        69        68        70        72        69        68        70        73
        69        68        76        77        69        68        76        78
        70        68        76        77        70        68        76        78
        71        70        68        76        71        70        73        74
        71        70        73        75        72        70        68        76
        72        70        73        74        72        70        73        75
        73        70        68        76        79        83        85        86
        79        83        85        87        79        83        85        88
        79        83        93        94        79        83        93        95
        80        79        83        84        80        79        83        85
        80        79        83        93        81        79        83        84
        81        79        83        85        81        79        83        93
        82        79        83        84        82        79        83        85
        82        79        83        93        83        85        88        89
        83        85        88        90        84        83        85        86
        84        83        85        87        84        83        85        88
        84        83        93        94        84        83        93        95
        85        83        93        94        85        83        93        95
        85        88        90        91        85        88        90        92
        86        85        83        93        86        85        88        89
        86        85        88        90        87        85        83        93
        87        85        88        89        87        85        88        90
        88        85        83        93        89        88        90        91
        89        88        90        92        96        99       107       104
        96        99       107       108        96        99       107       109
        96       102       104       105        96       102       104       106
        96       102       104       107        96       102       110       111
        96       102       110       112        97        96        99       100
        97        96        99       101        97        96        99       107
        97        96       102       103        97        96       102       104
        97        96       102       110        98        96        99       100
        98        96        99       101        98        96        99       107
        98        96       102       103        98        96       102       104
        98        96       102       110        99        96       102       103
        99        96       102       104        99        96       102       110
        99       107       104       102        99       107       104       105
        99       107       104       106       100        99        96       102
       100        99       107       104       100        99       107       108
       100        99       107       109       101        99        96       102
       101        99       107       104       101        99       107       108
       101        99       107       109       102        96        99       107
       102       104       107       108       102       104       107       109
       103       102       104       105       103       102       104       106
       103       102       104       107       103       102       110       111
       103       102       110       112       104       102       110       111
       104       102       110       112       105       104       102       110
       105       104       107       108       105       104       107       109
       106       104       102       110       106       104       107       108
       106       104       107       109       107       104       102       110
       113       114       129       130       113       114       129       131
       113       114       129       135       114       113       117       118
       114       113       117       119       114       113       117       120
       114       113       121       122       114       113       121       123
       114       113       121       124       114       113       125       126
       114       113       125       127       114       113       125       128
       114       129       135       132       115       114       113       117
       115       114       113       121       115       114       113       125
       115       114       129       130       115       114       129       131
       115       114       129       135       116       114       113       117
       116       114       113       121       116       114       113       125
       116       114       129       130       116       114       129       131
       116       114       129       135       117       113       114       129
       117       113       121       122       117       113       121       123
       117       113       121       124       117       113       125       126
       117       113       125       127       117       113       125       128
       118       117       113       121       118       117       113       125
       119       117       113       121       119       117       113       125
       120       117       113       121       120       117       113       125
       121       113       114       129       121       113       125       126
       121       113       125       127       121       113       125       128
       122       121       113       125       123       121       113       125
       124       121       113       125       125       113       114       129
       129       135       132       133       129       135       132       134
       129       135       132       136       130       129       135       132
       131       129       135       132       132       136       137       138
       132       136       137       139       132       136       137       140
       133       132       136       137       134       132       136       137
       135       132       136       137       136       137       140       141
       136       137       140       142       136       137       140       148
       137       140       142       143       137       140       148       149
       137       140       148       150       137       140       148       151
       138       137       140       141       138       137       140       142
       138       137       140       148       139       137       140       141
       139       137       140       142       139       137       140       148
       140       142       143       144       140       142       143       145
       140       148       151       152       141       140       142       143
       141       140       148       149       141       140       148       150
       141       140       148       151       142       140       148       149
       142       140       148       150       142       140       148       151
       142       143       145       146       142       143       145       147
       142       143       145       157       143       142       140       148
       143       145       157       158       143       145       157       159
       143       145       157       160       144       143       145       146
       144       143       145       147       144       143       145       157
       145       157       160       161       145       157       160       162
       145       157       160       163       146       145       157       158
       146       145       157       159       146       145       157       160
       147       145       157       158       147       145       157       159
       147       145       157       160       148       151       152       153
       148       151       152       154       149       148       151       152
       150       148       151       152       151       152       154       155
       151       152       154       156       151       152       154       204
       152       154       204       205       152       154       204       206
       152       154       204       207       153       152       154       155
       153       152       154       156       153       152       154       204
       154       204       207       208       154       204       207       209
       154       204       207       210       155       154       204       205
       155       154       204       206       155       154       204       207
       156       154       204       205       156       154       204       206
       156       154       204       207       157       160       163       164
       157       160       163       165       157       160       163       166
       158       157       160       161       158       157       160       162
       158       157       160       163       159       157       160       161
       159       157       160       162       159       157       160       163
       160       163       166       167       160       163       166       168
       160       163       166       169       161       160       163       164
       161       160       163       165       161       160       163       166
       162       160       163       164       162       160       163       165
       162       160       163       166       163       166       169       170
       163       166       169       171       163       166       169       172
       164       163       166       167       164       163       166       168
       164       163       166       169       165       163       166       167
       165       163       166       168       165       163       166       169
       166       169       172       173       166       169       172       174
       166       169       172       175       167       166       169       170
       167       166       169       171       167       166       169       172
       168       166       169       170       168       166       169       171
       168       166       169       172       169       172       175       176
       169       172       175       177       170       169       172       173
       170       169       172       174       170       169       172       175
       171       169       172       173       171       169       172       174
       171       169       172       175       172       175       177       178
       172       175       177       179       173       172       175       176
       173       172       175       177       174       172       175       176
       174       172       175       177       175       177       179       180
       175       177       179       181       175       177       179       182
       176       175       177       178       176       175       177       179
       177       179       182       183       177       179       182       184
       177       179       182       185       178       177       179       180
       178       177       179       181       178       177       179       182
       179       182       185       186       179       182       185       187
       179       182       185       188       180       179       182       183
       180       179       182       184       180       179       182       185
       181       179       182       183       181       179       182       184
       181       179       182       185       182       185       188       189
       182       185       188       190       182       185       188       191
       183       182       185       186       183       182       185       187
       183       182       185       188       184       182       185       186
       184       182       185       187       184       182       185       188
       185       188       191       192       185       188       191       193
       185       188       191       194       186       185       188       189
       186       185       188       190       186       185       188       191
       187       185       188       189       187       185       188       190
       187       185       188       191       188       191       194       195
       188       191       194       196       188       191       194       197
       189       188       191       192       189       188       191       193
       189       188       191       194       190       188       191       192
       190       188       191       193       190       188       191       194
       191       194       197       198       191       194       197       199
       191       194       197       200       192       191       194       195
       192       191       194       196       192       191       194       197
       193       191       194       195       193       191       194       196
       193       191       194       197       194       197       200       201
       194       197       200       202       194       197       200       203
       195       194       197       198       195       194       197       199
       195       194       197       200       196       194       197       198
       196       194       197       199       196       194       197       200
       198       197       200       201       198       197       200       202
       198       197       200       203       199       197       200       201
       199       197       200       202       199       197       200       203
       204       207       210       211       204       207       210       212
       204       207       210       213       205       204       207       208
       205       204       207       209       205       204       207       210
       206       204       207       208       206       204       207       209
       206       204       207       210       207       210       213       214
       207       210       213       215       207       210       213       216
       208       207       210       211       208       207       210       212
       208       207       210       213       209       207       210       211
       209       207       210       212       209       207       210       213
       210       213       216       217       210       213       216       218
       210       213       216       219       211       210       213       214
       211       210       213       215       211       210       213       216
       212       210       213       214       212       210       213       215
       212       210       213       216       213       216       219       220
       213       216       219       221       213       216       219       222
       214       213       216       217       214       213       216       218
       214       213       216       219       215       213       216       217
       215       213       216       218       215       213       216       219
       216       219       222       223       216       219       222       224
       216       219       222       225       217       216       219       220
       217       216       219       221       217       216       219       222
       218       216       219       220       218       216       219       221
       218       216       219       222       219       222       225       226
       219       222       225       227       219       222       225       228
       220       219       222       223       220       219       222       224
       220       219       222       225       221       219       222       223
       221       219       222       224       221       219       222       225
       222       225       228       229       222       225       228       230
       222       225       228       231       223       222       225       226
       223       222       225       227       223       222       225       228
       224       222       225       226       224       222       225       227
       224       222       225       228       225       228       231       232
       225       228       231       233       225       228       231       234
       226       225       228       229       226       225       228       230
       226       225       228       231       227       225       228       229
       227       225       228       230       227       225       228       231
       228       231       234       235       228       231       234       236
       228       231       234       237       229       228       231       232
       229       228       231       233       229       228       231       234
       230       228       231       232       230       228       231       233
       230       228       231       234       231       234       237       238
       231       234       237       239       231       234       237       240
       232       231       234       235       232       231       234       236
       232       231       234       237       233       231       234       235
       233       231       234       236       233       231       234       237
       234       237       240       241       234       237       240       242
       234       237       240       243       235       234       237       238
       235       234       237       239       235       234       237       240
       236       234       237       238       236       234       237       239
       236       234       237       240       237       240       243       244
       237       240       243       245       237       240       243       246
       238       237       240       241       238       237       240       242
       238       237       240       243       239       237       240       241
       239       237       240       242       239       237       240       243
       241       240       243       244       241       240       243       245
       241       240       243       246       242       240       243       244
       242       240       243       245       242       240       243       246
       247       251       253       254       247       251       253       255
       247       251       256       257       247       251       256       258
       247       251       256       262       248       247       251       252
       248       247       251       253       248       247       251       256
       249       247       251       252       249       247       251       253
       249       247       251       256       250       247       251       252
       250       247       251       253       250       247       251       256
       251       256       262       259       252       251       253       254
       252       251       253       255       252       251       256       257
       252       251       256       258       252       251       256       262
       253       251       256       257       253       251       256       258
       253       251       256       262       254       253       251       256
       255       253       251       256       256       262       259       260
       256       262       259       261       256       262       259       263
       257       256       262       259       258       256       262       259
       259       263       264       265       259       263       264       266
       259       263       264       267       260       259       263       264
       261       259       263       264       262       259       263       264
       263       264       267       268       263       264       267       269
       263       264       267       275       264       267       269       270
       264       267       275       276       264       267       275       277
       264       267       275       278       265       264       267       268
       265       264       267       269       265       264       267       275
       266       264       267       268       266       264       267       269
       266       264       267       275       267       269       270       271
       267       269       270       272       267       275       278       279
       268       267       269       270       268       267       275       276
       268       267       275       277       268       267       275       278
       269       267       275       276       269       267       275       277
       269       267       275       278       269       270       272       273
       269       270       272       274       269       270       272       284
       270       269       267       275       270       272       284       285
       270       272       284       286       270       272       284       287
       271       270       272       273       271       270       272       274
       271       270       272       284       272       284       287       288
       272       284       287       289       272       284       287       290
       273       272       284       285       273       272       284       286
       273       272       284       287       274       272       284       285
       274       272       284       286       274       272       284       287
       275       278       279       280       275       278       279       281
       276       275       278       279       277       275       278       279
       278       279       281       282       278       279       281       283
       278       279       281       331       279       281       331       332
       279       281       331       333       279       281       331       334
       280       279       281       282       280       279       281       283
       280       279       281       331       281       331       334       335
       281       331       334       336       281       331       334       337
       282       281       331       332       282       281       331       333
       282       281       331       334       283       281       331       332
       283       281       331       333       283       281       331       334
       284       287       290       291       284       287       290       292
       284       287       290       293       285       284       287       288
       285       284       287       289       285       284       287       290
       286       284       287       288       286       284       287       289
       286       284       287       290       287       290       293       294
       287       290       293       295       287       290       293       296
       288       287       290       291       288       287       290       292
       288       287       290       293       289       287       290       291
       289       287       290       292       289       287       290       293
       290       293       296       297       290       293       296       298
       290       293       296       299       291       290       293       294
       291       290       293       295       291       290       293       296
       292       290       293       294       292       290       293       295
       292       290       293       296       293       296       299       300
       293       296       299       301       293       296       299       302
       294       293       296       297       294       293       296       298
       294       293       296       299       295       293       296       297
       295       293       296       298       295       293       296       299
       296       299       302       303       296       299       302       304
       297       296       299       300       297       296       299       301
       297       296       299       302       298       296       299       300
       298       296       299       301       298       296       299       302
       299       302       304       305       299       302       304       306
       300       299       302       303       300       299       302       304
       301       299       302       303       301       299       302       304
       302       304       306       307       302       304       306       308
       302       304       306       309       303       302       304       305
       303       302       304       306       304       306       309       310
       304       306       309       311       304       306       309       312
       305       304       306       307       305       304       306       308
       305       304       306       309       306       309       312       313
       306       309       312       314       306       309       312       315
       307       306       309       310       307       306       309       311
       307       306       309       312       308       306       309       310
       308       306       309       311       308       306       309       312
       309       312       315       316       309       312       315       317
       309       312       315       318       310       309       312       313
       310       309       312       314       310       309       312       315
       311       309       312       313       311       309       312       314
       311       309       312       315       312       315       318       319
       312       315       318       320       312       315       318       321
       313       312       315       316       313       312       315       317
       313       312       315       318       314       312       315       316
       314       312       315       317       314       312       315       318
       315       318       321       322       315       318       321       323
       315       318       321       324       316       315       318       319
       316       315       318       320       316       315       318       321
       317       315       318       319       317       315       318       320
       317       315       318       321       318       321       324       325
       318       321       324       326       318       321       324       327
       319       318       321       322       319       318       321       323
       319       318       321       324       320       318       321       322
       320       318       321       323       320       318       321       324
       321       324       327       328       321       324       327       329
       321       324       327       330       322       321       324       325
       322       321       324       326       322       321       324       327
       323       321       324       325       323       321       324       326
       323       321       324       327       325       324       327       328
       325       324       327       329       325       324       327       330
       326       324       327       328       326       324       327       329
       326       324       327       330       331       334       337       338
       331       334       337       339       331       334       337       340
       332       331       334       335       332       331       334       336
       332       331       334       337       333       331       334       335
       333       331       334       336       333       331       334       337
       334       337       340       341       334       337       340       342
       334       337       340       343       335       334       337       338
       335       334       337       339       335       334       337       340
       336       334       337       338       336       334       337       339
       336       334       337       340       337       340       343       344
       337       340       343       345       337       340       343       346
       338       337       340       341       338       337       340       342
       338       337       340       343       339       337       340       341
       339       337       340       342       339       337       340       343
       340       343       346       347       340       343       346       348
       340       343       346       349       341       340       343       344
       341       340       343       345       341       340       343       346
       342       340       343       344       342       340       343       345
       342       340       343       346       343       346       349       350
       343       346       349       351       343       346       349       352
       344       343       346       347       344       343       346       348
       344       343       346       349       345       343       346       347
       345       343       346       348       345       343       346       349
       346       349       352       353       346       349       352       354
       346       349       352       355       347       346       349       350
       347       346       349       351       347       346       349       352
       348       346       349       350       348       346       349       351
       348       346       349       352       349       352       355       356
       349       352       355       357       349       352       355       358
       350       349       352       353       350       349       352       354
       350       349       352       355       351       349       352       353
       351       349       352       354       351       349       352       355
       352       355       358       359       352       355       358       360
       352       355       358       361       353       352       355       356
       353       352       355       357       353       352       355       358
       354       352       355       356       354       352       355       357
       354       352       355       358       355       358       361       362
       355       358       361       363       355       358       361       364
       356       355       358       359       356       355       358       360
       356       355       358       361       357       355       358       359
       357       355       358       360       357       355       358       361
       358       361       364       365       358       361       364       366
       358       361       364       367       359       358       361       362
       359       358       361       363       359       358       361       364
       360       358       361       362       360       358       361       363
       360       358       361       364       361       364       367       368
       361       364       367       369       361       364       367       370
       362       361       364       365       362       361       364       366
       362       361       364       367       363       361       364       365
       363       361       364       366       363       361       364       367
       364       367       370       371       364       367       370       372
       364       367       370       373       365       364       367       368
       365       364       367       369       365       364       367       370
       366       364       367       368       366       364       367       369
       366       364       367       370       368       367       370       371
       368       367       370       372       368       367       370       373
       369       367       370       371       369       367       370       372
       369       367       370       373       374       378       380       381
       374       378       380       382       374       378       383       384
       374       378       383       385       374       378       383       389
       375       374       378       379       375       374       378       380
       375       374       378       383       376       374       378       379
       376       374       378       380       376       374       378       383
       377       374       378       379       377       374       378       380
       377       374       378       383       378       383       389       386
       379       378       380       381       379       378       380       382
       379       378       383       384       379       378       383       385
       379       378       383       389       380       378       383       384
       380       378       383       385       380       378       383       389
       381       380       378       383       382       380       378       383
       383       389       386       387       383       389       386       388
       383       389       386       390       384       383       389       386
       385       383       389       386       386       390       391       392
       386       390       391       393       386       390       391       394
       387       386       390       391       388       386       390       391
       389       386       390       391       390       391       394       395
       390       391       394       396       390       391       394       402
       391       394       396       397       391       394       402       403
       391       394       402       404       391       394       402       405
       392       391       394       395       392       391       394       396
       392       391       394       402       393       391       394       395
       393       391       394       396       393       391       394       402
       394       396       397       398       394       396       397       399
       394       402       405       406       395       394       396       397
       395       394       402       403       395       394       402       404
       395       394       402       405       396       394       402       403
       396       394       402       404       396       394       402       405
       396       397       399       400       396       397       399       401
       396       397       399       411       397       396       394       402
       397       399       411       412       397       399       411       413
       397       399       411       414       398       397       399       400
       398       397       399       401       398       397       399       411
       399       411       414       415       399       411       414       416
       399       411       414       417       400       399       411       412
       400       399       411       413       400       399       411       414
       401       399       411       412       401       399       411       413
       401       399       411       414       402       405       406       407
       402       405       406       408       403       402       405       406
       404       402       405       406       405       406       408       409
       405       406       408       410       405       406       408       458
       406       408       458       459       406       408       458       460
       406       408       458       461       407       406       408       409
       407       406       408       410       407       406       408       458
       408       458       461       462       408       458       461       463
       408       458       461       464       409       408       458       459
       409       408       458       460       409       408       458       461
       410       408       458       459       410       408       458       460
       410       408       458       461       411       414       417       418
       411       414       417       419       411       414       417       420
       412       411       414       415       412       411       414       416
       412       411       414       417       413       411       414       415
       413       411       414       416       413       411       414       417
       414       417       420       421       414       417       420       422
       414       417       420       423       415       414       417       418
       415       414       417       419       415       414       417       420
       416       414       417       418       416       414       417       419
       416       414       417       420       417       420       423       424
       417       420       423       425       417       420       423       426
       418       417       420       421       418       417       420       422
       418       417       420       423       419       417       420       421
       419       417       420       422       419       417       420       423
       420       423       426       427       420       423       426       428
       420       423       426       429       421       420       423       424
       421       420       423       425       421       420       423       426
       422       420       423       424       422       420       423       425
       422       420       423       426       423       426       429       430
       423       426       429       431       424       423       426       427
       424       423       426       428       424       423       426       429
       425       423       426       427       425       423       426       428
       425       423       426       429       426       429       431       432
       426       429       431       433       427       426       429       430
       427       426       429       431       428       426       429       430
       428       426       429       431       429       431       433       434
       429       431       433       435       429       431       433       436
       430       429       431       432       430       429       431       433
       431       433       436       437       431       433       436       438
       431       433       436       439       432       431       433       434
       432       431       433       435       432       431       433       436
       433       436       439       440       433       436       439       441
       433       436       439       442       434       433       436       437
       434       433       436       438       434       433       436       439
       435       433       436       437       435       433       436       438
       435       433       436       439       436       439       442       443
       436       439       442       444       436       439       442       445
       437       436       439       440       437       436       439       441
       437       436       439       442       438       436       439       440
       438       436       439       441       438       436       439       442
       439       442       445       446       439       442       445       447
       439       442       445       448       440       439       442       443
       440       439       442       444       440       439       442       445
       441       439       442       443       441       439       442       444
       441       439       442       445       442       445       448       449
       442       445       448       450       442       445       448       451
       443       442       445       446       443       442       445       447
       443       442       445       448       444       442       445       446
       444       442       445       447       444       442       445       448
       445       448       451       452       445       448       451       453
       445       448       451       454       446       445       448       449
       446       445       448       450       446       445       448       451
       447       445       448       449       447       445       448       450
       447       445       448       451       448       451       454       455
       448       451       454       456       448       451       454       457
       449       448       451       452       449       448       451       453
       449       448       451       454       450       448       451       452
       450       448       451       453       450       448       451       454
       452       451       454       455       452       451       454       456
       452       451       454       457       453       451       454       455
       453       451       454       456       453       451       454       457
       458       461       464       465       458       461       464       466
       458       461       464       467       459       458       461       462
       459       458       461       463       459       458       461       464
       460       458       461       462       460       458       461       463
       460       458       461       464       461       464       467       468
       461       464       467       469       461       464       467       470
       462       461       464       465       462       461       464       466
       462       461       464       467       463       461       464       465
       463       461       464       466       463       461       464       467
       464       467       470       471       464       467       470       472
       464       467       470       473       465       464       467       468
       465       464       467       469       465       464       467       470
       466       464       467       468       466       464       467       469
       466       464       467       470       467       470       473       474
       467       470       473       475       467       470       473       476
       468       467       470       471       468       467       470       472
       468       467       470       473       469       467       470       471
       469       467       470       472       469       467       470       473
       470       473       476       477       470       473       476       478
       470       473       476       479       471       470       473       474
       471       470       473       475       471       470       473       476
       472       470       473       474       472       470       473       475
       472       470       473       476       473       476       479       480
       473       476       479       481       473       476       479       482
       474       473       476       477       474       473       476       478
       474       473       476       479       475       473       476       477
       475       473       476       478       475       473       476       479
       476       479       482       483       476       479       482       484
       476       479       482       485       477       476       479       480
       477       476       479       481       477       476       479       482
       478       476       479       480       478       476       479       481
       478       476       479       482       479       482       485       486
       479       482       485       487       479       482       485       488
       480       479       482       483       480       479       482       484
       480       479       482       485       481       479       482       483
       481       479       482       484       481       479       482       485
       482       485       488       489       482       485       488       490
       482       485       488       491       483       482       485       486
       483       482       485       487       483       482       485       488
       484       482       485       486       484       482       485       487
       484       482       485       488       485       488       491       492
       485       488       491       493       485       488       491       494
       486       485       488       489       486       485       488       490
       486       485       488       491       487       485       488       489
       487       485       488       490       487       485       488       491
       488       491       494       495       488       491       494       496
       488       491       494       497       489       488       491       492
       489       488       491       493       489       488       491       494
       490       488       491       492       490       488       491       493
       490       488       491       494       491       494       497       498
       491       494       497       499       491       494       497       500
       492       491       494       495       492       491       494       496
       492       491       494       497       493       491       494       495
       493       491       494       496       493       491       494       497
       495       494       497       498       495       494       497       499
       495       494       497       500       496       494       497       498
       496       494       497       499       496       494       497       500
       501       502       517       518       501       502       517       519
       501       502       517       523       502       501       505       506
       502       501       505       507       502       501       505       508
       502       501       509       510       502       501       509       511
       502       501       509       512       502       501       513       514
       502       501       513       515       502       501       513       516
       502       517       523       520       503       502       501       505
       503       502       501       509       503       502       501       513
       503       502       517       518       503       502       517       519
       503       502       517       523       504       502       501       505
       504       502       501       509       504       502       501       513
       504       502       517       518       504       502       517       519
       504       502       517       523       505       501       502       517
       505       501       509       510       505       501       509       511
       505       501       509       512       505       501       513       514
       505       501       513       515       505       501       513       516
       506       505       501       509       506       505       501       513
       507       505       501       509       507       505       501       513
       508       505       501       509       508       505       501       513
       509       501       502       517       509       501       513       514
       509       501       513       515       509       501       513       516
       510       509       501       513       511       509       501       513
       512       509       501       513       513       501       502       517
       517       523       520       521       517       523       520       522
       517       523       520       524       518       517       523       520
       519       517       523       520       520       524       525       526
       520       524       525       527       520       524       525       528
       521       520       524       525       522       520       524       525
       523       520       524       525       524       525       528       529
       524       525       528       530       524       525       528       536
       525       528       530       531       525       528       536       537
       525       528       536       538       525       528       536       539
       526       525       528       529       526       525       528       530
       526       525       528       536       527       525       528       529
       527       525       528       530       527       525       528       536
       528       530       531       532       528       530       531       533
       528       536       539       540       529       528       530       531
       529       528       536       537       529       528       536       538
       529       528       536       539       530       528       536       537
       530       528       536       538       530       528       536       539
       530       531       533       534       530       531       533       535
       530       531       533       545       531       530       528       536
       531       533       545       546       531       533       545       547
       531       533       545       548       532       531       533       534
       532       531       533       535       532       531       533       545
       533       545       548       549       533       545       548       550
       533       545       548       551       534       533       545       546
       534       533       545       547       534       533       545       548
       535       533       545       546       535       533       545       547
       535       533       545       548       536       539       540       541
       536       539       540       542       537       536       539       540
       538       536       539       540       539       540       542       543
       539       540       542       544       539       540       542       592
       540       542       592       593       540       542       592       594
       540       542       592       595       541       540       542       543
       541       540       542       544       541       540       542       592
       542       592       595       596       542       592       595       597
       542       592       595       598       543       542       592       593
       543       542       592       594       543       542       592       595
       544       542       592       593       544       542       592       594
       544       542       592       595       545       548       551       552
       545       548       551       553       545       548       551       554
       546       545       548       549       546       545       548       550
       546       545       548       551       547       545       548       549
       547       545       548       550       547       545       548       551
       548       551       554       555       548       551       554       556
       548       551       554       557       549       548       551       552
       549       548       551       553       549       548       551       554
       550       548       551       552       550       548       551       553
       550       548       551       554       551       554       557       558
       551       554       557       559       551       554       557       560
       552       551       554       555       552       551       554       556
       552       551       554       557       553       551       554       555
       553       551       554       556       553       551       554       557
       554       557       560       561       554       557       560       562
       554       557       560       563       555       554       557       558
       555       554       557       559       555       554       557       560
       556       554       557       558       556       554       557       559
       556       554       557       560       557       560       563       564
       557       560       563       565       558       557       560       561
       558       557       560       562       558       557       560       563
       559       557       560       561       559       557       560       562
       559       557       560       563       560       563       565       566
       560       563       565       567       561       560       563       564
       561       560       563       565       562       560       563       564
       562       560       563       565       563       565       567       568
       563       565       567       569       563       565       567       570
       564       563       565       566       564       563       565       567
       565       567       570       571       565       567       570       572
       565       567       570       573       566       565       567       568
       566       565       567       569       566       565       567       570
       567       570       573       574       567       570       573       575
       567       570       573       576       568       567       570       571
       568       567       570       572       568       567       570       573
       569       567       570       571       569       567       570       572
       569       567       570       573       570       573       576       577
       570       573       576       578       570       573       576       579
       571       570       573       574       571       570       573       575
       571       570       573       576       572       570       573       574
       572       570       573       575       572       570       573       576
       573       576       579       580       573       576       579       581
       573       576       579       582       574       573       576       577
       574       573       576       578       574       573       576       579
       575       573       576       577       575       573       576       578
       575       573       576       579       576       579       582       583
       576       579       582       584       576       579       582       585
       577       576       579       580       577       576       579       581
       577       576       579       582       578       576       579       580
       578       576       579       581       578       576       579       582
       579       582       585       586       579       582       585       587
       579       582       585       588       580       579       582       583
       580       579       582       584       580       579       582       585
       581       579       582       583       581       579       582       584
       581       579       582       585       582       585       588       589
       582       585       588       590       582       585       588       591
       583       582       585       586       583       582       585       587
       583       582       585       588       584       582       585       586
       584       582       585       587       584       582       585       588
       586       585       588       589       586       585       588       590
       586       585       588       591       587       585       588       589
       587       585       588       590       587       585       588       591
       592       595       598       599       592       595       598       600
       592       595       598       601       593       592       595       596
       593       592       595       597       593       592       595       598
       594       592       595       596       594       592       595       597
       594       592       595       598       595       598       601       602
       595       598       601       603       595       598       601       604
       596       595       598       599       596       595       598       600
       596       595       598       601       597       595       598       599
       597       595       598       600       597       595       598       601
       598       601       604       605       598       601       604       606
       598       601       604       607       599       598       601       602
       599       598       601       603       599       598       601       604
       600       598       601       602       600       598       601       603
       600       598       601       604       601       604       607       608
       601       604       607       609       601       604       607       610
       602       601       604       605       602       601       604       606
       602       601       604       607       603       601       604       605
       603       601       604       606       603       601       604       607
       604       607       610       611       604       607       610       612
       604       607       610       613       605       604       607       608
       605       604       607       609       605       604       607       610
       606       604       607       608       606       604       607       609
       606       604       607       610       607       610       613       614
       607       610       613       615       607       610       613       616
       608       607       610       611       608       607       610       612
       608       607       610       613       609       607       610       611
       609       607       610       612       609       607       610       613
       610       613       616       617       610       613       616       618
       610       613       616       619       611       610       613       614
       611       610       613       615       611       610       613       616
       612       610       613       614       612       610       613       615
       612       610       613       616       613       616       619       620
       613       616       619       621       613       616       619       622
       614       613       616       617       614       613       616       618
       614       613       616       619       615       613       616       617
       615       613       616       618       615       613       616       619
       616       619       622       623       616       619       622       624
       616       619       622       625       617       616       619       620
       617       616       619       621       617       616       619       622
       618       616       619       620       618       616       619       621
       618       616       619       622       619       622       625       626
       619       622       625       627       619       622       625       628
       620       619       622       623       620       619       622       624
       620       619       622       625       621       619       622       623
       621       619       622       624       621       619       622       625
       622       625       628       629       622       625       628       630
       622       625       628       631       623       622       625       626
       623       622       625       627       623       622       625       628
       624       622       625       626       624       622       625       627
       624       622       625       628       625       628       631       632
       625       628       631       633       625       628       631       634
       626       625       628       629       626       625       628       630
       626       625       628       631       627       625       628       629
       627       625       628       630       627       625       628       631
       629       628       631       632       629       628       631       633
       629       628       631       634       630       628       631       632
       630       628       631       633       630       628       631       634
       635       636       651       652       635       636       651       653
       635       636       651       657       636       635       639       640
       636       635       639       641       636       635       639       642
       636       635       643       644       636       635       643       645
       636       635       643       646       636       635       647       648
       636       635       647       649       636       635       647       650
       636       651       657       654       637       636       635       639
       637       636       635       643       637       636       635       647
       637       636       651       652       637       636       651       653
       637       636       651       657       638       636       635       639
       638       636       635       643       638       636       635       647
       638       636       651       652       638       636       651       653
       638       636       651       657       639       635       636       651
       639       635       643       644       639       635       643       645
       639       635       643       646       639       635       647       648
       639       635       647       649       639       635       647       650
       640       639       635       643       640       639       635       647
       641       639       635       643       641       639       635       647
       642       639       635       643       642       639       635       647
       643       635       636       651       643       635       647       648
       643       635       647       649       643       635       647       650
       644       643       635       647       645       643       635       647
       646       643       635       647       647       635       636       651
       651       657       654       655       651       657       654       656
       651       657       654       658       652       651       657       654
       653       651       657       654       654       658       659       660
       654       658       659       661       654       658       659       662
       655       654       658       659       656       654       658       659
       657       654       658       659       658       659       662       663
       658       659       662       664       658       659       662       670
       659       662       664       665       659       662       670       671
       659       662       670       672       659       662       670       673
       660       659       662       663       660       659       662       664
       660       659       662       670       661       659       662       663
       661       659       662       664       661       659       662       670
       662       664       665       666       662       664       665       667
       662       670       673       674       663       662       664       665
       663       662       670       671       663       662       670       672
       663       662       670       673       664       662       670       671
       664       662       670       672       664       662       670       673
       664       665       667       668       664       665       667       669
       664       665       667       679       665       664       662       670
       665       667       679       680       665       667       679       681
       665       667       679       682       666       665       667       668
       666       665       667       669       666       665       667       679
       667       679       682       683       667       679       682       684
       667       679       682       685       668       667       679       680
       668       667       679       681       668       667       679       682
       669       667       679       680       669       667       679       681
       669       667       679       682       670       673       674       675
       670       673       674       676       671       670       673       674
       672       670       673       674       673       674       676       677
       673       674       676       678       673       674       676       726
       674       676       726       727       674       676       726       728
       674       676       726       729       675       674       676       677
       675       674       676       678       675       674       676       726
       676       726       729       730       676       726       729       731
       676       726       729       732       677       676       726       727
       677       676       726       728       677       676       726       729
       678       676       726       727       678       676       726       728
       678       676       726       729       679       682       685       686
       679       682       685       687       679       682       685       688
       680       679       682       683       680       679       682       684
       680       679       682       685       681       679       682       683
       681       679       682       684       681       679       682       685
       682       685       688       689       682       685       688       690
       682       685       688       691       683       682       685       686
       683       682       685       687       683       682       685       688
       684       682       685       686       684       682       685       687
       684       682       685       688       685       688       691       692
       685       688       691       693       685       688       691       694
       686       685       688       689       686       685       688       690
       686       685       688       691       687       685       688       689
       687       685       688       690       687       685       688       691
       688       691       694       695       688       691       694       696
       688       691       694       697       689       688       691       692
       689       688       691       693       689       688       691       694
       690       688       691       692       690       688       691       693
       690       688       691       694       691       694       697       698
       691       694       697       699       692       691       694       695
       692       691       694       696       692       691       694       697
       693       691       694       695       693       691       694       696
       693       691       694       697       694       697       699       700
       694       697       699       701       695       694       697       698
       695       694       697       699       696       694       697       698
       696       694       697       699       697       699       701       702
       697       699       701       703       697       699       701       704
       698       697       699       700       698       697       699       701
       699       701       704       705       699       701       704       706
       699       701       704       707       700       699       701       702
       700       699       701       703       700       699       701       704
       701       704       707       708       701       704       707       709
       701       704       707       710       702       701       704       705
       702       701       704       706       702       701       704       707
       703       701       704       705       703       701       704       706
       703       701       704       707       704       707       710       711
       704       707       710       712       704       707       710       713
       705       704       707       708       705       704       707       709
       705       704       707       710       706       704       707       708
       706       704       707       709       706       704       707       710
       707       710       713       714       707       710       713       715
       707       710       713       716       708       707       710       711
       708       707       710       712       708       707       710       713
       709       707       710       711       709       707       710       712
       709       707       710       713       710       713       716       717
       710       713       716       718       710       713       716       719
       711       710       713       714       711       710       713       715
       711       710       713       716       712       710       713       714
       712       710       713       715       712       710       713       716
       713       716       719       720       713       716       719       721
       713       716       719       722       714       713       716       717
       714       713       716       718       714       713       716       719
       715       713       716       717       715       713       716       718
       715       713       716       719       716       719       722       723
       716       719       722       724       716       719       722       725
       717       716       719       720       717       716       719       721
       717       716       719       722       718       716       719       720
       718       716       719       721       718       716       719       722
       720       719       722       723       720       719       722       724
       720       719       722       725       721       719       722       723
       721       719       722       724       721       719       722       725
       726       729       732       733       726       729       732       734
       726       729       732       735       727       726       729       730
       727       726       729       731       727       726       729       732
       728       726       729       730       728       726       729       731
       728       726       729       732       729       732       735       736
       729       732       735       737       729       732       735       738
       730       729       732       733       730       729       732       734
       730       729       732       735       731       729       732       733
       731       729       732       734       731       729       732       735
       732       735       738       739       732       735       738       740
       732       735       738       741       733       732       735       736
       733       732       735       737       733       732       735       738
       734       732       735       736       734       732       735       737
       734       732       735       738       735       738       741       742
       735       738       741       743       735       738       741       744
       736       735       738       739       736       735       738       740
       736       735       738       741       737       735       738       739
       737       735       738       740       737       735       738       741
       738       741       744       745       738       741       744       746
       738       741       744       747       739       738       741       742
       739       738       741       743       739       738       741       744
       740       738       741       742       740       738       741       743
       740       738       741       744       741       744       747       748
       741       744       747       749       741       744       747       750
       742       741       744       745       742       741       744       746
       742       741       744       747       743       741       744       745
       743       741       744       746       743       741       744       747
       744       747       750       751       744       747       750       752
       744       747       750       753       745       744       747       748
       745       744       747       749       745       744       747       750
       746       744       747       748       746       744       747       749
       746       744       747       750       747       750       753       754
       747       750       753       755       747       750       753       756
       748       747       750       751       748       747       750       752
       748       747       750       753       749       747       750       751
       749       747       750       752       749       747       750       753
       750       753       756       757       750       753       756       758
       750       753       756       759       751       750       753       754
       751       750       753       755       751       750       753       756
       752       750       753       754       752       750       753       755
       752       750       753       756       753       756       759       760
       753       756       759       761       753       756       759       762
       754       753       756       757       754       753       756       758
       754       753       756       759       755       753       756       757
       755       753       756       758       755       753       756       759
       756       759       762       763       756       759       762       764
       756       759       762       765       757       756       759       760
       757       756       759       761       757       756       759       762
       758       756       759       760       758       756       759       761
       758       756       759       762       759       762       765       766
       759       762       765       767       759       762       765       768
       760       759       762       763       760       759       762       764
       760       759       762       765       761       759       762       763
       761       759       762       764       761       759       762       765
       763       762       765       766       763       762       765       767
       763       762       765       768       764       762       765       766
       764       762       765       767       764       762       765       768
       769       770       785       786       769       770       785       787
       769       770       785       791       770       769       773       774
       770       769       773       775       770       769       773       776
       770       769       777       778       770       769       777       779
       770       769       777       780       770       769       781       782
       770       769       781       783       770       769       781       784
       770       785       791       788       771       770       769       773
       771       770       769       777       771       770       769       781
       771       770       785       786       771       770       785       787
       771       770       785       791       772       770       769       773
       772       770       769       777       772       770       769       781
       772       770       785       786       772       770       785       787
       772       770       785       791       773       769       770       785
       773       769       777       778       773       769       777       779
       773       769       777       780       773       769       781       782
       773       769       781       783       773       769       781       784
       774       773       769       777       774       773       769       781
       775       773       769       777       775       773       769       781
       776       773       769       777       776       773       769       781
       777       769       770       785       777       769       781       782
       777       769       781       783       777       769       781       784
       778       777       769       781       779       777       769       781
       780       777       769       781       781       769       770       785
       785       791       788       789       785       791       788       790
       785       791       788       792       786       785       791       788
       787       785       791       788       788       792       793       794
       788       792       793       795       788       792       793       796
       789       788       792       793       790       788       792       793
       791       788       792       793       792       793       796       797
       792       793       796       798       792       793       796       804
       793       796       798       799       793       796       804       805
       793       796       804       806       793       796       804       807
       794       793       796       797       794       793       796       798
       794       793       796       804       795       793       796       797
       795       793       796       798       795       793       796       804
       796       798       799       800       796       798       799       801
       796       804       807       808       797       796       798       799
       797       796       804       805       797       796       804       806
       797       796       804       807       798       796       804       805
       798       796       804       806       798       796       804       807
       798       799       801       802       798       799       801       803
       798       799       801       813       799       798       796       804
       799       801       813       814       799       801       813       815
       799       801       813       816       800       799       801       802
       800       799       801       803       800       799       801       813
       801       813       816       817       801       813       816       818
       801       813       816       819       802       801       813       814
       802       801       813       815       802       801       813       816
       803       801       813       814       803       801       813       815
       803       801       813       816       804       807       808       809
       804       807       808       810       805       804       807       808
       806       804       807       808       807       808       810       811
       807       808       810       812       807       808       810       860
       808       810       860       861       808       810       860       862
       808       810       860       863       809       808       810       811
       809       808       810       812       809       808       810       860
       810       860       863       864       810       860       863       865
       810       860       863       866       811       810       860       861
       811       810       860       862       811       810       860       863
       812       810       860       861       812       810       860       862
       812       810       860       863       813       816       819       820
       813       816       819       821       813       816       819       822
       814       813       816       817       814       813       816       818
       814       813       816       819       815       813       816       817
       815       813       816       818       815       813       816       819
       816       819       822       823       816       819       822       824
       816       819       822       825       817       816       819       820
       817       816       819       821       817       816       819       822
       818       816       819       820       818       816       819       821
       818       816       819       822       819       822       825       826
       819       822       825       827       819       822       825       828
       820       819       822       823       820       819       822       824
       820       819       822       825       821       819       822       823
       821       819       822       824       821       819       822       825
       822       825       828       829       822       825       828       830
       822       825       828       831       823       822       825       826
       823       822       825       827       823       822       825       828
       824       822       825       826       824       822       825       827
       824       822       825       828       825       828       831       832
       825       828       831       833       826       825       828       829
       826       825       828       830       826       825       828       831
       827       825       828       829       827       825       828       830
       827       825       828       831       828       831       833       834
       828       831       833       835       829       828       831       832
       829       828       831       833       830       828       831       832
       830       828       831       833       831       833       835       836
       831       833       835       837       831       833       835       838
       832       831       833       834       832       831       833       835
       833       835       838       839       833       835       838       840
       833       835       838       841       834       833       835       836
       834       833       835       837       834       833       835       838
       835       838       841       842       835       838       841       843
       835       838       841       844       836       835       838       839
       836       835       838       840       836       835       838       841
       837       835       838       839       837       835       838       840
       837       835       838       841       838       841       844       845
       838       841       844       846       838       841       844       847
       839       838       841       842       839       838       841       843
       839       838       841       844       840       838       841       842
       840       838       841       843       840       838       841       844
       841       844       847       848       841       844       847       849
       841       844       847       850       842       841       844       845
       842       841       844       846       842       841       844       847
       843       841       844       845       843       841       844       846
       843       841       844       847       844       847       850       851
       844       847       850       852       844       847       850       853
       845       844       847       848       845       844       847       849
       845       844       847       850       846       844       847       848
       846       844       847       849       846       844       847       850
       847       850       853       854       847       850       853       855
       847       850       853       856       848       847       850       851
       848       847       850       852       848       847       850       853
       849       847       850       851       849       847       850       852
       849       847       850       853       850       853       856       857
       850       853       856       858       850       853       856       859
       851       850       853       854       851       850       853       855
       851       850       853       856       852       850       853       854
       852       850       853       855       852       850       853       856
       854       853       856       857       854       853       856       858
       854       853       856       859       855       853       856       857
       855       853       856       858       855       853       856       859
       860       863       866       867       860       863       866       868
       860       863       866       869       861       860       863       864
       861       860       863       865       861       860       863       866
       862       860       863       864       862       860       863       865
       862       860       863       866       863       866       869       870
       863       866       869       871       863       866       869       872
       864       863       866       867       864       863       866       868
       864       863       866       869       865       863       866       867
       865       863       866       868       865       863       866       869
       866       869       872       873       866       869       872       874
       866       869       872       875       867       866       869       870
       867       866       869       871       867       866       869       872
       868       866       869       870       868       866       869       871
       868       866       869       872       869       872       875       876
       869       872       875       877       869       872       875       878
       870       869       872       873       870       869       872       874
       870       869       872       875       871       869       872       873
       871       869       872       874       871       869       872       875
       872       875       878       879       872       875       878       880
       872       875       878       881       873       872       875       876
       873       872       875       877       873       872       875       878
       874       872       875       876       874       872       875       877
       874       872       875       878       875       878       881       882
       875       878       881       883       875       878       881       884
       876       875       878       879       876       875       878       880
       876       875       878       881       877       875       878       879
       877       875       878       880       877       875       878       881
       878       881       884       885       878       881       884       886
       878       881       884       887       879       878       881       882
       879       878       881       883       879       878       881       884
       880       878       881       882       880       878       881       883
       880       878       881       884       881       884       887       888
       881       884       887       889       881       884       887       890
       882       881       884       885       882       881       884       886
       882       881       884       887       883       881       884       885
       883       881       884       886       883       881       884       887
       884       887       890       891       884       887       890       892
       884       887       890       893       885       884       887       888
       885       884       887       889       885       884       887       890
       886       884       887       888       886       884       887       889
       886       884       887       890       887       890       893       894
       887       890       893       895       887       890       893       896
       888       887       890       891       888       887       890       892
       888       887       890       893       889       887       890       891
       889       887       890       892       889       887       890       893
       890       893       896       897       890       893       896       898
       890       893       896       899       891       890       893       894
       891       890       893       895       891       890       893       896
       892       890       893       894       892       890       893       895
       892       890       893       896       893       896       899       900
       893       896       899       901       893       896       899       902
       894       893       896       897       894       893       896       898
       894       893       896       899       895       893       896       897
       895       893       896       898       895       893       896       899
       897       896       899       900       897       896       899       901
       897       896       899       902       898       896       899       900
       898       896       899       901       898       896       899       902
       903       907       909       910       903       907       909       911
       903       907       912       913       903       907       912       914
       903       907       912       918       904       903       907       908
       904       903       907       909       904       903       907       912
       905       903       907       908       905       903       907       909
       905       903       907       912       906       903       907       908
       906       903       907       909       906       903       907       912
       907       912       918       915       908       907       909       910
       908       907       909       911       908       907       912       913
       908       907       912       914       908       907       912       918
       909       907       912       913       909       907       912       914
       909       907       912       918       910       909       907       912
       911       909       907       912       912       918       915       916
       912       918       915       917       912       918       915       919
       913       912       918       915       914       912       918       915
       915       919       920       921       915       919       920       922
       915       919       920       923       916       915       919       920
       917       915       919       920       918       915       919       920
       919       920       923       924       919       920       923       925
       919       920       923       931       920       923       925       926
       920       923       931       932       920       923       931       933
       920       923       931       934       921       920       923       924
       921       920       923       925       921       920       923       931
       922       920       923       924       922       920       923       925
       922       920       923       931       923       925       926       927
       923       925       926       928       923       931       934       935
       924       923       925       926       924       923       931       932
       924       923       931       933       924       923       931       934
       925       923       931       932       925       923       931       933
       925       923       931       934       925       926       928       929
       925       926       928       930       925       926       928       940
       926       925       923       931       926       928       940       941
       926       928       940       942       926       928       940       943
       927       926       928       929       927       926       928       930
       927       926       928       940       928       940       943       944
       928       940       943       945       928       940       943       946
       929       928       940       941       929       928       940       942
       929       928       940       943       930       928       940       941
       930       928       940       942       930       928       940       943
       931       934       935       936       931       934       935       937
       932       931       934       935       933       931       934       935
       934       935       937       938       934       935       937       939
       934       935       937       987       935       937       987       988
       935       937       987       989       935       937       987       990
       936       935       937       938       936       935       937       939
       936       935       937       987       937       987       990       991
       937       987       990       992       937       987       990       993
       938       937       987       988       938       937       987       989
       938       937       987       990       939       937       987       988
       939       937       987       989       939       937       987       990
       940       943       946       947       940       943       946       948
       940       943       946       949       941       940       943       944
       941       940       943       945       941       940       943       946
       942       940       943       944       942       940       943       945
       942       940       943       946       943       946       949       950
       943       946       949       951       943       946       949       952
       944       943       946       947       944       943       946       948
       944       943       946       949       945       943       946       947
       945       943       946       948       945       943       946       949
       946       949       952       953       946       949       952       954
       946       949       952       955       947       946       949       950
       947       946       949       951       947       946       949       952
       948       946       949       950       948       946       949       951
       948       946       949       952       949       952       955       956
       949       952       955       957       949       952       955       958
       950       949       952       953       950       949       952       954
       950       949       952       955       951       949       952       953
       951       949       952       954       951       949       952       955
       952       955       958       959       952       955       958       960
       953       952       955       956       953       952       955       957
       953       952       955       958       954       952       955       956
       954       952       955       957       954       952       955       958
       955       958       960       961       955       958       960       962
       956       955       958       959       956       955       958       960
       957       955       958       959       957       955       958       960
       958       960       962       963       958       960       962       964
       958       960       962       965       959       958       960       961
       959       958       960       962       960       962       965       966
       960       962       965       967       960       962       965       968
       961       960       962       963       961       960       962       964
       961       960       962       965       962       965       968       969
       962       965       968       970       962       965       968       971
       963       962       965       966       963       962       965       967
       963       962       965       968       964       962       965       966
       964       962       965       967       964       962       965       968
       965       968       971       972       965       968       971       973
       965       968       971       974       966       965       968       969
       966       965       968       970       966       965       968       971
       967       965       968       969       967       965       968       970
       967       965       968       971       968       971       974       975
       968       971       974       976       968       971       974       977
       969       968       971       972       969       968       971       973
       969       968       971       974       970       968       971       972
       970       968       971       973       970       968       971       974
       971       974       977       978       971       974       977       979
       971       974       977       980       972       971       974       975
       972       971       974       976       972       971       974       977
       973       971       974       975       973       971       974       976
       973       971       974       977       974       977       980       981
       974       977       980       982       974       977       980       983
       975       974       977       978       975       974       977       979
       975       974       977       980       976       974       977       978
       976       974       977       979       976       974       977       980
       977       980       983       984       977       980       983       985
       977       980       983       986       978       977       980       981
       978       977       980       982       978       977       980       983
       979       977       980       981       979       977       980       982
       979       977       980       983       981       980       983       984
       981       980       983       985       981       980       983       986
       982       980       983       984       982       980       983       985
       982       980       983       986       987       990       993       994
       987       990       993       995       987       990       993       996
       988       987       990       991       988       987       990       992
       988       987       990       993       989       987       990       991
       989       987       990       992       989       987       990       993
       990       993       996       997       990       993       996       998
       990       993       996       999       991       990       993       994
       991       990       993       995       991       990       993       996
       992       990       993       994       992       990       993       995
       992       990       993       996       993       996       999      1000
       993       996       999      1001       993       996       999      1002
       994       993       996       997       994       993       996       998
       994       993       996       999       995       993       996       997
       995       993       996       998       995       993       996       999
       996       999      1002      1003       996       999      1002      1004
       996       999      1002      1005       997       996       999      1000
       997       996       999      1001       997       996       999      1002
       998       996       999      1000       998       996       999      1001
       998       996       999      1002       999      1002      1005      1006
       999      1002      1005      1007       999      1002      1005      1008
      1000       999      1002      1003      1000       999      1002      1004
      1000       999      1002      1005      1001       999      1002      1003
      1001       999      1002      1004      1001       999      1002      1005
      1002      1005      1008      1009      1002      1005      1008      1010
      1002      1005      1008      1011      1003      1002      1005      1006
      1003      1002      1005      1007      1003      1002      1005      1008
      1004      1002      1005      1006      1004      1002      1005      1007
      1004      1002      1005      1008      1005      1008      1011      1012
      1005      1008      1011      1013      1005      1008      1011      1014
      1006      1005      1008      1009      1006      1005      1008      1010
      1006      1005      1008      1011      1007      1005      1008      1009
      1007      1005      1008      1010      1007      1005      1008      1011
      1008      1011      1014      1015      1008      1011      1014      1016
      1008      1011      1014      1017      1009      1008      1011      1012
      1009      1008      1011      1013      1009      1008      1011      1014
      1010      1008      1011      1012      1010      1008      1011      1013
      1010      1008      1011      1014      1011      1014      1017      1018
      1011      1014      1017      1019      1011      1014      1017      1020
      1012      1011      1014      1015      1012      1011      1014      1016
      1012      1011      1014      1017      1013      1011      1014      1015
      1013      1011      1014      1016      1013      1011      1014      1017
      1014      1017      1020      1021      1014      1017      1020      1022
      1014      1017      1020      1023      1015      1014      1017      1018
      1015      1014      1017      1019      1015      1014      1017      1020
      1016      1014      1017      1018      1016      1014      1017      1019
      1016      1014      1017      1020      1017      1020      1023      1024
      1017      1020      1023      1025      1017      1020      1023      1026
      1018      1017      1020      1021      1018      1017      1020      1022
      1018      1017      1020      1023      1019      1017      1020      1021
      1019      1017      1020      1022      1019      1017      1020      1023
      1020      1023      1026      1027      1020      1023      1026      1028
      1020      1023      1026      1029      1021      1020      1023      1024
      1021      1020      1023      1025      1021      1020      1023      1026
      1022      1020      1023      1024      1022      1020      1023      1025
      1022      1020      1023      1026      1024      1023      1026      1027
      1024      1023      1026      1028      1024      1023      1026      1029
      1025      1023      1026      1027      1025      1023      1026      1028
      1025      1023      1026      1029      1030      1031      1046      1047
      1030      1031      1046      1048      1030      1031      1046      1052
      1031      1030      1034      1035      1031      1030      1034      1036
      1031      1030      1034      1037      1031      1030      1038      1039
      1031      1030      1038      1040      1031      1030      1038      1041
      1031      1030      1042      1043      1031      1030      1042      1044
      1031      1030      1042      1045      1031      1046      1052      1049
      1032      1031      1030      1034      1032      1031      1030      1038
      1032      1031      1030      1042      1032      1031      1046      1047
      1032      1031      1046      1048      1032      1031      1046      1052
      1033      1031      1030      1034      1033      1031      1030      1038
      1033      1031      1030      1042      1033      1031      1046      1047
      1033      1031      1046      1048      1033      1031      1046      1052
      1034      1030      1031      1046      1034      1030      1038      1039
      1034      1030      1038      1040      1034      1030      1038      1041
      1034      1030      1042      1043      1034      1030      1042      1044
      1034      1030      1042      1045      1035      1034      1030      1038
      1035      1034      1030      1042      1036      1034      1030      1038
      1036      1034      1030      1042      1037      1034      1030      1038
      1037      1034      1030      1042      1038      1030      1031      1046
      1038      1030      1042      1043      1038      1030      1042      1044
      1038      1030      1042      1045      1039      1038      1030      1042
      1040      1038      1030      1042      1041      1038      1030      1042
      1042      1030      1031      1046      1046      1052      1049      1050
      1046      1052      1049      1051      1046      1052      1049      1053
      1047      1046      1052      1049      1048      1046      1052      1049
      1049      1053      1054      1055      1049      1053      1054      1056
      1049      1053      1054      1057      1050      1049      1053      1054
      1051      1049      1053      1054      1052      1049      1053      1054
      1053      1054      1057      1058      1053      1054      1057      1059
      1053      1054      1057      1065      1054      1057      1059      1060
      1054      1057      1065      1066      1054      1057      1065      1067
      1054      1057      1065      1068      1055      1054      1057      1058
      1055      1054      1057      1059      1055      1054      1057      1065
      1056      1054      1057      1058      1056      1054      1057      1059
      1056      1054      1057      1065      1057      1059      1060      1061
      1057      1059      1060      1062      1057      1065      1068      1069
      1058      1057      1059      1060      1058      1057      1065      1066
      1058      1057      1065      1067      1058      1057      1065      1068
      1059      1057      1065      1066      1059      1057      1065      1067
      1059      1057      1065      1068      1059      1060      1062      1063
      1059      1060      1062      1064      1059      1060      1062      1074
      1060      1059      1057      1065      1060      1062      1074      1075
      1060      1062      1074      1076      1060      1062      1074      1077
      1061      1060      1062      1063      1061      1060      1062      1064
      1061      1060      1062      1074      1062      1074      1077      1078
      1062      1074      1077      1079      1062      1074      1077      1080
      1063      1062      1074      1075      1063      1062      1074      1076
      1063      1062      1074      1077      1064      1062      1074      1075
      1064      1062      1074      1076      1064      1062      1074      1077
      1065      1068      1069      1070      1065      1068      1069      1071
      1066      1065      1068      1069      1067      1065      1068      1069
      1068      1069      1071      1072      1068      1069      1071      1073
      1068      1069      1071      1121      1069      1071      1121      1122
      1069      1071      1121      1123      1069      1071      1121      1124
      1070      1069      1071      1072      1070      1069      1071      1073
      1070      1069      1071      1121      1071      1121      1124      1125
      1071      1121      1124      1126      1071      1121      1124      1127
      1072      1071      1121      1122      1072      1071      1121      1123
      1072      1071      1121      1124      1073      1071      1121      1122
      1073      1071      1121      1123      1073      1071      1121      1124
      1074      1077      1080      1081      1074      1077      1080      1082
      1074      1077      1080      1083      1075      1074      1077      1078
      1075      1074      1077      1079      1075      1074      1077      1080
      1076      1074      1077      1078      1076      1074      1077      1079
      1076      1074      1077      1080      1077      1080      1083      1084
      1077      1080      1083      1085      1077      1080      1083      1086
      1078      1077      1080      1081      1078      1077      1080      1082
      1078      1077      1080      1083      1079      1077      1080      1081
      1079      1077      1080      1082      1079      1077      1080      1083
      1080      1083      1086      1087      1080      1083      1086      1088
      1080      1083      1086      1089      1081      1080      1083      1084
      1081      1080      1083      1085      1081      1080      1083      1086
      1082      1080      1083      1084      1082      1080      1083      1085
      1082      1080      1083      1086      1083      1086      1089      1090
      1083      1086      1089      1091      1083      1086      1089      1092
      1084      1083      1086      1087      1084      1083      1086      1088
      1084      1083      1086      1089      1085      1083      1086      1087
      1085      1083      1086      1088      1085      1083      1086      1089
      1086      1089      1092      1093      1086      1089      1092      1094
      1087      1086      1089      1090      1087      1086      1089      1091
      1087      1086      1089      1092      1088      1086      1089      1090
      1088      1086      1089      1091      1088      1086      1089      1092
      1089      1092      1094      1095      1089      1092      1094      1096
      1090      1089      1092      1093      1090      1089      1092      1094
      1091      1089      1092      1093      1091      1089      1092      1094
      1092      1094      1096      1097      1092      1094      1096      1098
      1092      1094      1096      1099      1093      1092      1094      1095
      1093      1092      1094      1096      1094      1096      1099      1100
      1094      1096      1099      1101      1094      1096      1099      1102
      1095      1094      1096      1097      1095      1094      1096      1098
      1095      1094      1096      1099      1096      1099      1102      1103
      1096      1099      1102      1104      1096      1099      1102      1105
      1097      1096      1099      1100      1097      1096      1099      1101
      1097      1096      1099      1102      1098      1096      1099      1100
      1098      1096      1099      1101      1098      1096      1099      1102
      1099      1102      1105      1106      1099      1102      1105      1107
      1099      1102      1105      1108      1100      1099      1102      1103
      1100      1099      1102      1104      1100      1099      1102      1105
      1101      1099      1102      1103      1101      1099      1102      1104
      1101      1099      1102      1105      1102      1105      1108      1109
      1102      1105      1108      1110      1102      1105      1108      1111
      1103      1102      1105      1106      1103      1102      1105      1107
      1103      1102      1105      1108      1104      1102      1105      1106
      1104      1102      1105      1107      1104      1102      1105      1108
      1105      1108      1111      1112      1105      1108      1111      1113
      1105      1108      1111      1114      1106      1105      1108      1109
      1106      1105      1108      1110      1106      1105      1108      1111
      1107      1105      1108      1109      1107      1105      1108      1110
      1107      1105      1108      1111      1108      1111      1114      1115
      1108      1111      1114      1116      1108      1111      1114      1117
      1109      1108      1111      1112      1109      1108      1111      1113
      1109      1108      1111      1114      1110      1108      1111      1112
      1110      1108      1111      1113      1110      1108      1111      1114
      1111      1114      1117      1118      1111      1114      1117      1119
      1111      1114      1117      1120      1112      1111      1114      1115
      1112      1111      1114      1116      1112      1111      1114      1117
      1113      1111      1114      1115      1113      1111      1114      1116
      1113      1111      1114      1117      1115      1114      1117      1118
      1115      1114      1117      1119      1115      1114      1117      1120
      1116      1114      1117      1118      1116      1114      1117      1119
      1116      1114      1117      1120      1121      1124      1127      1128
      1121      1124      1127      1129      1121      1124      1127      1130
      1122      1121      1124      1125      1122      1121      1124      1126
      1122      1121      1124      1127      1123      1121      1124      1125
      1123      1121      1124      1126      1123      1121      1124      1127
      1124      1127      1130      1131      1124      1127      1130      1132
      1124      1127      1130      1133      1125      1124      1127      1128
      1125      1124      1127      1129      1125      1124      1127      1130
      1126      1124      1127      1128      1126      1124      1127      1129
      1126      1124      1127      1130      1127      1130      1133      1134
      1127      1130      1133      1135      1127      1130      1133      1136
      1128      1127      1130      1131      1128      1127      1130      1132
      1128      1127      1130      1133      1129      1127      1130      1131
      1129      1127      1130      1132      1129      1127      1130      1133
      1130      1133      1136      1137      1130      1133      1136      1138
      1130      1133      1136      1139      1131      1130      1133      1134
      1131      1130      1133      1135      1131      1130      1133      1136
      1132      1130      1133      1134      1132      1130      1133      1135
      1132      1130      1133      1136      1133      1136      1139      1140
      1133      1136      1139      1141      1133      1136      1139      1142
      1134      1133      1136      1137      1134      1133      1136      1138
      1134      1133      1136      1139      1135      1133      1136      1137
      1135      1133      1136      1138      1135      1133      1136      1139
      1136      1139      1142      1143      1136      1139      1142      1144
      1136      1139      1142      1145      1137      1136      1139      1140
      1137      1136      1139      1141      1137      1136      1139      1142
      1138      1136      1139      1140      1138      1136      1139      1141
      1138      1136      1139      1142      1139      1142      1145      1146
      1139      1142      1145      1147      1139      1142      1145      1148
      1140      1139      1142      1143      1140      1139      1142      1144
      1140      1139      1142      1145      1141      1139      1142      1143
      1141      1139      1142      1144      1141      1139      1142      1145
      1142      1145      1148      1149      1142      1145      1148      1150
      1142      1145      1148      1151      1143      1142      1145      1146
      1143      1142      1145      1147      1143      1142      1145      1148
      1144      1142      1145      1146      1144      1142      1145      1147
      1144      1142      1145      1148      1145      1148      1151      1152
      1145      1148      1151      1153      1145      1148      1151      1154
      1146      1145      1148      1149      1146      1145      1148      1150
      1146      1145      1148      1151      1147      1145      1148      1149
      1147      1145      1148      1150      1147      1145      1148      1151
      1148      1151      1154      1155      1148      1151      1154      1156
      1148      1151      1154      1157      1149      1148      1151      1152
      1149      1148      1151      1153      1149      1148      1151      1154
      1150      1148      1151      1152      1150      1148      1151      1153
      1150      1148      1151      1154      1151      1154      1157      1158
      1151      1154      1157      1159      1151      1154      1157      1160
      1152      1151      1154      1155      1152      1151      1154      1156
      1152      1151      1154      1157      1153      1151      1154      1155
      1153      1151      1154      1156      1153      1151      1154      1157
      1154      1157      1160      1161      1154      1157      1160      1162
      1154      1157      1160      1163      1155      1154      1157      1158
      1155      1154      1157      1159      1155      1154      1157      1160
      1156      1154      1157      1158      1156      1154      1157      1159
      1156      1154      1157      1160      1158      1157      1160      1161
      1158      1157      1160      1162      1158      1157      1160      1163
      1159      1157      1160      1161      1159      1157      1160      1162
      1159      1157      1160      1163      1164      1165      1180      1181
      1164      1165      1180      1182      1164      1165      1180      1186
      1165      1164      1168      1169      1165      1164      1168      1170
      1165      1164      1168      1171      1165      1164      1172      1173
      1165      1164      1172      1174      1165      1164      1172      1175
      1165      1164      1176      1177      1165      1164      1176      1178
      1165      1164      1176      1179      1165      1180      1186      1183
      1166      1165      1164      1168      1166      1165      1164      1172
      1166      1165      1164      1176      1166      1165      1180      1181
      1166      1165      1180      1182      1166      1165      1180      1186
      1167      1165      1164      1168      1167      1165      1164      1172
      1167      1165      1164      1176      1167      1165      1180      1181
      1167      1165      1180      1182      1167      1165      1180      1186
      1168      1164      1165      1180      1168      1164      1172      1173
      1168      1164      1172      1174      1168      1164      1172      1175
      1168      1164      1176      1177      1168      1164      1176      1178
      1168      1164      1176      1179      1169      1168      1164      1172
      1169      1168      1164      1176      1170      1168      1164      1172
      1170      1168      1164      1176      1171      1168      1164      1172
      1171      1168      1164      1176      1172      1164      1165      1180
      1172      1164      1176      1177      1172      1164      1176      1178
      1172      1164      1176      1179      1173      1172      1164      1176
      1174      1172      1164      1176      1175      1172      1164      1176
      1176      1164      1165      1180      1180      1186      1183      1184
      1180      1186      1183      1185      1180      1186      1183      1187
      1181      1180      1186      1183      1182      1180      1186      1183
      1183      1187      1188      1189      1183      1187      1188      1190
      1183      1187      1188      1191      1184      1183      1187      1188
      1185      1183      1187      1188      1186      1183      1187      1188
      1187      1188      1191      1192      1187      1188      1191      1193
      1187      1188      1191      1199      1188      1191      1193      1194
      1188      1191      1199      1200      1188      1191      1199      1201
      1188      1191      1199      1202      1189      1188      1191      1192
      1189      1188      1191      1193      1189      1188      1191      1199
      1190      1188      1191      1192      1190      1188      1191      1193
      1190      1188      1191      1199      1191      1193      1194      1195
      1191      1193      1194      1196      1191      1199      1202      1203
      1192      1191      1193      1194      1192      1191      1199      1200
      1192      1191      1199      1201      1192      1191      1199      1202
      1193      1191      1199      1200      1193      1191      1199      1201
      1193      1191      1199      1202      1193      1194      1196      1197
      1193      1194      1196      1198      1193      1194      1196      1208
      1194      1193      1191      1199      1194      1196      1208      1209
      1194      1196      1208      1210      1194      1196      1208      1211
      1195      1194      1196      1197      1195      1194      1196      1198
      1195      1194      1196      1208      1196      1208      1211      1212
      1196      1208      1211      1213      1196      1208      1211      1214
      1197      1196      1208      1209      1197      1196      1208      1210
      1197      1196      1208      1211      1198      1196      1208      1209
      1198      1196      1208      1210      1198      1196      1208      1211
      1199      1202      1203      1204      1199      1202      1203      1205
      1200      1199      1202      1203      1201      1199      1202      1203
      1202      1203      1205      1206      1202      1203      1205      1207
      1202      1203      1205      1255      1203      1205      1255      1256
      1203      1205      1255      1257      1203      1205      1255      1258
      1204      1203      1205      1206      1204      1203      1205      1207
      1204      1203      1205      1255      1205      1255      1258      1259
      1205      1255      1258      1260      1205      1255      1258      1261
      1206      1205      1255      1256      1206      1205      1255      1257
      1206      1205      1255      1258      1207      1205      1255      1256
      1207      1205      1255      1257      1207      1205      1255      1258
      1208      1211      1214      1215      1208      1211      1214      1216
      1208      1211      1214      1217      1209      1208      1211      1212
      1209      1208      1211      1213      1209      1208      1211      1214
      1210      1208      1211      1212      1210      1208      1211      1213
      1210      1208      1211      1214      1211      1214      1217      1218
      1211      1214      1217      1219      1211      1214      1217      1220
      1212      1211      1214      1215      1212      1211      1214      1216
      1212      1211      1214      1217      1213      1211      1214      1215
      1213      1211      1214      1216      1213      1211      1214      1217
      1214      1217      1220      1221      1214      1217      1220      1222
      1214      1217      1220      1223      1215      1214      1217      1218
      1215      1214      1217      1219      1215      1214      1217      1220
      1216      1214      1217      1218      1216      1214      1217      1219
      1216      1214      1217      1220      1217      1220      1223      1224
      1217      1220      1223      1225      1217      1220      1223      1226
      1218      1217      1220      1221      1218      1217      1220      1222
      1218      1217      1220      1223      1219      1217      1220      1221
      1219      1217      1220      1222      1219      1217      1220      1223
      1220      1223      1226      1227      1220      1223      1226      1228
      1221      1220      1223      1224      1221      1220      1223      1225
      1221      1220      1223      1226      1222      1220      1223      1224
      1222      1220      1223      1225      1222      1220      1223      1226
      1223      1226      1228      1229      1223      1226      1228      1230
      1224      1223      1226      1227      1224      1223      1226      1228
      1225      1223      1226      1227      1225      1223      1226      1228
      1226      1228      1230      1231      1226      1228      1230      1232
      1226      1228      1230      1233      1227      1226      1228      1229
      1227      1226      1228      1230      1228      1230      1233      1234
      1228      1230      1233      1235      1228      1230      1233      1236
      1229      1228      1230      1231      1229      1228      1230      1232
      1229      1228      1230      1233      1230      1233      1236      1237
      1230      1233      1236      1238      1230      1233      1236      1239
      1231      1230      1233      1234      1231      1230      1233      1235
      1231      1230      1233      1236      1232      1230      1233      1234
      1232      1230      1233      1235      1232      1230      1233      1236
      1233      1236      1239      1240      1233      1236      1239      1241
      1233      1236      1239      1242      1234      1233      1236      1237
      1234      1233      1236      1238      1234      1233      1236      1239
      1235      1233      1236      1237      1235      1233      1236      1238
      1235      1233      1236      1239      1236      1239      1242      1243
      1236      1239      1242      1244      1236      1239      1242      1245
      1237      1236      1239      1240      1237      1236      1239      1241
      1237      1236      1239      1242      1238      1236      1239      1240
      1238      1236      1239      1241      1238      1236      1239      1242
      1239      1242      1245      1246      1239      1242      1245      1247
      1239      1242      1245      1248      1240      1239      1242      1243
      1240      1239      1242      1244      1240      1239      1242      1245
      1241      1239      1242      1243      1241      1239      1242      1244
      1241      1239      1242      1245      1242      1245      1248      1249
      1242      1245      1248      1250      1242      1245      1248      1251
      1243      1242      1245      1246      1243      1242      1245      1247
      1243      1242      1245      1248      1244      1242      1245      1246
      1244      1242      1245      1247      1244      1242      1245      1248
      1245      1248      1251      1252      1245      1248      1251      1253
      1245      1248      1251      1254      1246      1245      1248      1249
      1246      1245      1248      1250      1246      1245      1248      1251
      1247      1245      1248      1249      1247      1245      1248      1250
      1247      1245      1248      1251      1249      1248      1251      1252
      1249      1248      1251      1253      1249      1248      1251      1254
      1250      1248      1251      1252      1250      1248      1251      1253
      1250      1248      1251      1254      1255      1258      1261      1262
      1255      1258      1261      1263      1255      1258      1261      1264
      1256      1255      1258      1259      1256      1255      1258      1260
      1256      1255      1258      1261      1257      1255      1258      1259
      1257      1255      1258      1260      1257      1255      1258      1261
      1258      1261      1264      1265      1258      1261      1264      1266
      1258      1261      1264      1267      1259      1258      1261      1262
      1259      1258      1261      1263      1259      1258      1261      1264
      1260      1258      1261      1262      1260      1258      1261      1263
      1260      1258      1261      1264      1261      1264      1267      1268
      1261      1264      1267      1269      1261      1264      1267      1270
      1262      1261      1264      1265      1262      1261      1264      1266
      1262      1261      1264      1267      1263      1261      1264      1265
      1263      1261      1264      1266      1263      1261      1264      1267
      1264      1267      1270      1271      1264      1267      1270      1272
      1264      1267      1270      1273      1265      1264      1267      1268
      1265      1264      1267      1269      1265      1264      1267      1270
      1266      1264      1267      1268      1266      1264      1267      1269
      1266      1264      1267      1270      1267      1270      1273      1274
      1267      1270      1273      1275      1267      1270      1273      1276
      1268      1267      1270      1271      1268      1267      1270      1272
      1268      1267      1270      1273      1269      1267      1270      1271
      1269      1267      1270      1272      1269      1267      1270      1273
      1270      1273      1276      1277      1270      1273      1276      1278
      1270      1273      1276      1279      1271      1270      1273      1274
      1271      1270      1273      1275      1271      1270      1273      1276
      1272      1270      1273      1274      1272      1270      1273      1275
      1272      1270      1273      1276      1273      1276      1279      1280
      1273      1276      1279      1281      1273      1276      1279      1282
      1274      1273      1276      1277      1274      1273      1276      1278
      1274      1273      1276      1279      1275      1273      1276      1277
      1275      1273      1276      1278      1275      1273      1276      1279
      1276      1279      1282      1283      1276      1279      1282      1284
      1276      1279      1282      1285      1277      1276      1279      1280
      1277      1276      1279      1281      1277      1276      1279      1282
      1278      1276      1279      1280      1278      1276      1279      1281
      1278      1276      1279      1282      1279      1282      1285      1286
      1279      1282      1285      1287      1279      1282      1285      1288
      1280      1279      1282      1283      1280      1279      1282      1284
      1280      1279      1282      1285      1281      1279      1282      1283
      1281      1279      1282      1284      1281      1279      1282      1285
      1282      1285      1288      1289      1282      1285      1288      1290
      1282      1285      1288      1291      1283      1282      1285      1286
      1283      1282      1285      1287      1283      1282      1285      1288
      1284      1282      1285      1286      1284      1282      1285      1287
      1284      1282      1285      1288      1285      1288      1291      1292
      1285      1288      1291      1293      1285      1288      1291      1294
      1286      1285      1288      1289      1286      1285      1288      1290
      1286      1285      1288      1291      1287      1285      1288      1289
      1287      1285      1288      1290      1287      1285      1288      1291
      1288      1291      1294      1295      1288      1291      1294      1296
      1288      1291      1294      1297      1289      1288      1291      1292
      1289      1288      1291      1293      1289      1288      1291      1294
      1290      1288      1291      1292      1290      1288      1291      1293
      1290      1288      1291      1294      1292      1291      1294      1295
      1292      1291      1294      1296      1292      1291      1294      1297
      1293      1291      1294      1295      1293      1291      1294      1296
      1293      1291      1294      1297      1298      1299      1314      1315
      1298      1299      1314      1316      1298      1299      1314      1320
      1299      1298      1302      1303      1299      1298      1302      1304
      1299      1298      1302      1305      1299      1298      1306      1307
      1299      1298      1306      1308      1299      1298      1306      1309
      1299      1298      1310      1311      1299      1298      1310      1312
      1299      1298      1310      1313      1299      1314      1320      1317
      1300      1299      1298      1302      1300      1299      1298      1306
      1300      1299      1298      1310      1300      1299      1314      1315
      1300      1299      1314      1316      1300      1299      1314      1320
      1301      1299      1298      1302      1301      1299      1298      1306
      1301      1299      1298      1310      1301      1299      1314      1315
      1301      1299      1314      1316      1301      1299      1314      1320
      1302      1298      1299      1314      1302      1298      1306      1307
      1302      1298      1306      1308      1302      1298      1306      1309
      1302      1298      1310      1311      1302      1298      1310      1312
      1302      1298      1310      1313      1303      1302      1298      1306
      1303      1302      1298      1310      1304      1302      1298      1306
      1304      1302      1298      1310      1305      1302      1298      1306
      1305      1302      1298      1310      1306      1298      1299      1314
      1306      1298      1310      1311      1306      1298      1310      1312
      1306      1298      1310      1313      1307      1306      1298      1310
      1308      1306      1298      1310      1309      1306      1298      1310
      1310      1298      1299      1314      1314      1320      1317      1318
      1314      1320      1317      1319      1314      1320      1317      1321
      1315      1314      1320      1317      1316      1314      1320      1317
      1317      1321      1322      1323      1317      1321      1322      1324
      1317      1321      1322      1325      1318      1317      1321      1322
      1319      1317      1321      1322      1320      1317      1321      1322
      1321      1322      1325      1326      1321      1322      1325      1327
      1321      1322      1325      1333      1322      1325      1327      1328
      1322      1325      1333      1334      1322      1325      1333      1335
      1322      1325      1333      1336      1323      1322      1325      1326
      1323      1322      1325      1327      1323      1322      1325      1333
      1324      1322      1325      1326      1324      1322      1325      1327
      1324      1322      1325      1333      1325      1327      1328      1329
      1325      1327      1328      1330      1325      1333      1336      1337
      1326      1325      1327      1328      1326      1325      1333      1334
      1326      1325      1333      1335      1326      1325      1333      1336
      1327      1325      1333      1334      1327      1325      1333      1335
      1327      1325      1333      1336      1327      1328      1330      1331
      1327      1328      1330      1332      1327      1328      1330      1342
      1328      1327      1325      1333      1328      1330      1342      1343
      1328      1330      1342      1344      1328      1330      1342      1345
      1329      1328      1330      1331      1329      1328      1330      1332
      1329      1328      1330      1342      1330      1342      1345      1346
      1330      1342      1345      1347      1330      1342      1345      1348
      1331      1330      1342      1343      1331      1330      1342      1344
      1331      1330      1342      1345      1332      1330      1342      1343
      1332      1330      1342      1344      1332      1330      1342      1345
      1333      1336      1337      1338      1333      1336      1337      1339
      1334      1333      1336      1337      1335      1333      1336      1337
      1336      1337      1339      1340      1336      1337      1339      1341
      1336      1337      1339      1389      1337      1339      1389      1390
      1337      1339      1389      1391      1337      1339      1389      1392
      1338      1337      1339      1340      1338      1337      1339      1341
      1338      1337      1339      1389      1339      1389      1392      1393
      1339      1389      1392      1394      1339      1389      1392      1395
      1340      1339      1389      1390      1340      1339      1389      1391
      1340      1339      1389      1392      1341      1339      1389      1390
      1341      1339      1389      1391      1341      1339      1389      1392
      1342      1345      1348      1349      1342      1345      1348      1350
      1342      1345      1348      1351      1343      1342      1345      1346
      1343      1342      1345      1347      1343      1342      1345      1348
      1344      1342      1345      1346      1344      1342      1345      1347
      1344      1342      1345      1348      1345      1348      1351      1352
      1345      1348      1351      1353      1345      1348      1351      1354
      1346      1345      1348      1349      1346      1345      1348      1350
      1346      1345      1348      1351      1347      1345      1348      1349
      1347      1345      1348      1350      1347      1345      1348      1351
      1348      1351      1354      1355      1348      1351      1354      1356
      1348      1351      1354      1357      1349      1348      1351      1352
      1349      1348      1351      1353      1349      1348      1351      1354
      1350      1348      1351      1352      1350      1348      1351      1353
      1350      1348      1351      1354      1351      1354      1357      1358
      1351      1354      1357      1359      1351      1354      1357      1360
      1352      1351      1354      1355      1352      1351      1354      1356
      1352      1351      1354      1357      1353      1351      1354      1355
      1353      1351      1354      1356      1353      1351      1354      1357
      1354      1357      1360      1361      1354      1357      1360      1362
      1355      1354      1357      1358      1355      1354      1357      1359
      1355      1354      1357      1360      1356      1354      1357      1358
      1356      1354      1357      1359      1356      1354      1357      1360
      1357      1360      1362      1363      1357      1360      1362      1364
      1358      1357      1360      1361      1358      1357      1360      1362
      1359      1357      1360      1361      1359      1357      1360      1362
      1360      1362      1364      1365      1360      1362      1364      1366
      1360      1362      1364      1367      1361      1360      1362      1363
      1361      1360      1362      1364      1362      1364      1367      1368
      1362      1364      1367      1369      1362      1364      1367      1370
      1363      1362      1364      1365      1363      1362      1364      1366
      1363      1362      1364      1367      1364      1367      1370      1371
      1364      1367      1370      1372      1364      1367      1370      1373
      1365      1364      1367      1368      1365      1364      1367      1369
      1365      1364      1367      1370      1366      1364      1367      1368
      1366      1364      1367      1369      1366      1364      1367      1370
      1367      1370      1373      1374      1367      1370      1373      1375
      1367      1370      1373      1376      1368      1367      1370      1371
      1368      1367      1370      1372      1368      1367      1370      1373
      1369      1367      1370      1371      1369      1367      1370      1372
      1369      1367      1370      1373      1370      1373      1376      1377
      1370      1373      1376      1378      1370      1373      1376      1379
      1371      1370      1373      1374      1371      1370      1373      1375
      1371      1370      1373      1376      1372      1370      1373      1374
      1372      1370      1373      1375      1372      1370      1373      1376
      1373      1376      1379      1380      1373      1376      1379      1381
      1373      1376      1379      1382      1374      1373      1376      1377
      1374      1373      1376      1378      1374      1373      1376      1379
      1375      1373      1376      1377      1375      1373      1376      1378
      1375      1373      1376      1379      1376      1379      1382      1383
      1376      1379      1382      1384      1376      1379      1382      1385
      1377      1376      1379      1380      1377      1376      1379      1381
      1377      1376      1379      1382      1378      1376      1379      1380
      1378      1376      1379      1381      1378      1376      1379      1382
      1379      1382      1385      1386      1379      1382      1385      1387
      1379      1382      1385      1388      1380      1379      1382      1383
      1380      1379      1382      1384      1380      1379      1382      1385
      1381      1379      1382      1383      1381      1379      1382      1384
      1381      1379      1382      1385      1383      1382      1385      1386
      1383      1382      1385      1387      1383      1382      1385      1388
      1384      1382      1385      1386      1384      1382      1385      1387
      1384      1382      1385      1388      1389      1392      1395      1396
      1389      1392      1395      1397      1389      1392      1395      1398
      1390      1389      1392      1393      1390      1389      1392      1394
      1390      1389      1392      1395      1391      1389      1392      1393
      1391      1389      1392      1394      1391      1389      1392      1395
      1392      1395      1398      1399      1392      1395      1398      1400
      1392      1395      1398      1401      1393      1392      1395      1396
      1393      1392      1395      1397      1393      1392      1395      1398
      1394      1392      1395      1396      1394      1392      1395      1397
      1394      1392      1395      1398      1395      1398      1401      1402
      1395      1398      1401      1403      1395      1398      1401      1404
      1396      1395      1398      1399      1396      1395      1398      1400
      1396      1395      1398      1401      1397      1395      1398      1399
      1397      1395      1398      1400      1397      1395      1398      1401
      1398      1401      1404      1405      1398      1401      1404      1406
      1398      1401      1404      1407      1399      1398      1401      1402
      1399      1398      1401      1403      1399      1398      1401      1404
      1400      1398      1401      1402      1400      1398      1401      1403
      1400      1398      1401      1404      1401      1404      1407      1408
      1401      1404      1407      1409      1401      1404      1407      1410
      1402      1401      1404      1405      1402      1401      1404      1406
      1402      1401      1404      1407      1403      1401      1404      1405
      1403      1401      1404      1406      1403      1401      1404      1407
      1404      1407      1410      1411      1404      1407      1410      1412
      1404      1407      1410      1413      1405      1404      1407      1408
      1405      1404      1407      1409      1405      1404      1407      1410
      1406      1404      1407      1408      1406      1404      1407      1409
      1406      1404      1407      1410      1407      1410      1413      1414
      1407      1410      1413      1415      1407      1410      1413      1416
      1408      1407      1410      1411      1408      1407      1410      1412
      1408      1407      1410      1413      1409      1407      1410      1411
      1409      1407      1410      1412      1409      1407      1410      1413
      1410      1413      1416      1417      1410      1413      1416      1418
      1410      1413      1416      1419      1411      1410      1413      1414
      1411      1410      1413      1415      1411      1410      1413      1416
      1412      1410      1413      1414      1412      1410      1413      1415
      1412      1410      1413      1416      1413      1416      1419      1420
      1413      1416      1419      1421      1413      1416      1419      1422
      1414      1413      1416      1417      1414      1413      1416      1418
      1414      1413      1416      1419      1415      1413      1416      1417
      1415      1413      1416      1418      1415      1413      1416      1419
      1416      1419      1422      1423      1416      1419      1422      1424
      1416      1419      1422      1425      1417      1416      1419      1420
      1417      1416      1419      1421      1417      1416      1419      1422
      1418      1416      1419      1420      1418      1416      1419      1421
      1418      1416      1419      1422      1419      1422      1425      1426
      1419      1422      1425      1427      1419      1422      1425      1428
      1420      1419      1422      1423      1420      1419      1422      1424
      1420      1419      1422      1425      1421      1419      1422      1423
      1421      1419      1422      1424      1421      1419      1422      1425
      1422      1425      1428      1429      1422      1425      1428      1430
      1422      1425      1428      1431      1423      1422      1425      1426
      1423      1422      1425      1427      1423      1422      1425      1428
      1424      1422      1425      1426      1424      1422      1425      1427
      1424      1422      1425      1428      1426      1425      1428      1429
      1426      1425      1428      1430      1426      1425      1428      1431
      1427      1425      1428      1429      1427      1425      1428      1430
      1427      1425      1428      1431      1432      1433      1448      1449
      1432      1433      1448      1450      1432      1433      1448      1454
      1433      1432      1436      1437      1433      1432      1436      1438
      1433      1432      1436      1439      1433      1432      1440      1441
      1433      1432      1440      1442      1433      1432      1440      1443
      1433      1432      1444      1445      1433      1432      1444      1446
      1433      1432      1444      1447      1433      1448      1454      1451
      1434      1433      1432      1436      1434      1433      1432      1440
      1434      1433      1432      1444      1434      1433      1448      1449
      1434      1433      1448      1450      1434      1433      1448      1454
      1435      1433      1432      1436      1435      1433      1432      1440
      1435      1433      1432      1444      1435      1433      1448      1449
      1435      1433      1448      1450      1435      1433      1448      1454
      1436      1432      1433      1448      1436      1432      1440      1441
      1436      1432      1440      1442      1436      1432      1440      1443
      1436      1432      1444      1445      1436      1432      1444      1446
      1436      1432      1444      1447      1437      1436      1432      1440
      1437      1436      1432      1444      1438      1436      1432      1440
      1438      1436      1432      1444      1439      1436      1432      1440
      1439      1436      1432      1444      1440      1432      1433      1448
      1440      1432      1444      1445      1440      1432      1444      1446
      1440      1432      1444      1447      1441      1440      1432      1444
      1442      1440      1432      1444      1443      1440      1432      1444
      1444      1432      1433      1448      1448      1454      1451      1452
      1448      1454      1451      1453      1448      1454      1451      1455
      1449      1448      1454      1451      1450      1448      1454      1451
      1451      1455      1456      1457      1451      1455      1456      1458
      1451      1455      1456      1459      1452      1451      1455      1456
      1453      1451      1455      1456      1454      1451      1455      1456
      1455      1456      1459      1460      1455      1456      1459      1461
      1455      1456      1459      1467      1456      1459      1461      1462
      1456      1459      1467      1468      1456      1459      1467      1469
      1456      1459      1467      1470      1457      1456      1459      1460
      1457      1456      1459      1461      1457      1456      1459      1467
      1458      1456      1459      1460      1458      1456      1459      1461
      1458      1456      1459      1467      1459      1461      1462      1463
      1459      1461      1462      1464      1459      1467      1470      1471
      1460      1459      1461      1462      1460      1459      1467      1468
      1460      1459      1467      1469      1460      1459      1467      1470
      1461      1459      1467      1468      1461      1459      1467      1469
      1461      1459      1467      1470      1461      1462      1464      1465
      1461      1462      1464      1466      1461      1462      1464      1476
      1462      1461      1459      1467      1462      1464      1476      1477
      1462      1464      1476      1478      1462      1464      1476      1479
      1463      1462      1464      1465      1463      1462      1464      1466
      1463      1462      1464      1476      1464      1476      1479      1480
      1464      1476      1479      1481      1464      1476      1479      1482
      1465      1464      1476      1477      1465      1464      1476      1478
      1465      1464      1476      1479      1466      1464      1476      1477
      1466      1464      1476      1478      1466      1464      1476      1479
      1467      1470      1471      1472      1467      1470      1471      1473
      1468      1467      1470      1471      1469      1467      1470      1471
      1470      1471      1473      1474      1470      1471      1473      1475
      1470      1471      1473      1523      1471      1473      1523      1524
      1471      1473      1523      1525      1471      1473      1523      1526
      1472      1471      1473      1474      1472      1471      1473      1475
      1472      1471      1473      1523      1473      1523      1526      1527
      1473      1523      1526      1528      1473      1523      1526      1529
      1474      1473      1523      1524      1474      1473      1523      1525
      1474      1473      1523      1526      1475      1473      1523      1524
      1475      1473      1523      1525      1475      1473      1523      1526
      1476      1479      1482      1483      1476      1479      1482      1484
      1476      1479      1482      1485      1477      1476      1479      1480
      1477      1476      1479      1481      1477      1476      1479      1482
      1478      1476      1479      1480      1478      1476      1479      1481
      1478      1476      1479      1482      1479      1482      1485      1486
      1479      1482      1485      1487      1479      1482      1485      1488
      1480      1479      1482      1483      1480      1479      1482      1484
      1480      1479      1482      1485      1481      1479      1482      1483
      1481      1479      1482      1484      1481      1479      1482      1485
      1482      1485      1488      1489      1482      1485      1488      1490
      1482      1485      1488      1491      1483      1482      1485      1486
      1483      1482      1485      1487      1483      1482      1485      1488
      1484      1482      1485      1486      1484      1482      1485      1487
      1484      1482      1485      1488      1485      1488      1491      1492
      1485      1488      1491      1493      1485      1488      1491      1494
      1486      1485      1488      1489      1486      1485      1488      1490
      1486      1485      1488      1491      1487      1485      1488      1489
      1487      1485      1488      1490      1487      1485      1488      1491
      1488      1491      1494      1495      1488      1491      1494      1496
      1489      1488      1491      1492      1489      1488      1491      1493
      1489      1488      1491      1494      1490      1488      1491      1492
      1490      1488      1491      1493      1490      1488      1491      1494
      1491      1494      1496      1497      1491      1494      1496      1498
      1492      1491      1494      1495      1492      1491      1494      1496
      1493      1491      1494      1495      1493      1491      1494      1496
      1494      1496      1498      1499      1494      1496      1498      1500
      1494      1496      1498      1501      1495      1494      1496      1497
      1495      1494      1496      1498      1496      1498      1501      1502
      1496      1498      1501      1503      1496      1498      1501      1504
      1497      1496      1498      1499      1497      1496      1498      1500
      1497      1496      1498      1501      1498      1501      1504      1505
      1498      1501      1504      1506      1498      1501      1504      1507
      1499      1498      1501      1502      1499      1498      1501      1503
      1499      1498      1501      1504      1500      1498      1501      1502
      1500      1498      1501      1503      1500      1498      1501      1504
      1501      1504      1507      1508      1501      1504      1507      1509
      1501      1504      1507      1510      1502      1501      1504      1505
      1502      1501      1504      1506      1502      1501      1504      1507
      1503      1501      1504      1505      1503      1501      1504      1506
      1503      1501      1504      1507      1504      1507      1510      1511
      1504      1507      1510      1512      1504      1507      1510      1513
      1505      1504      1507      1508      1505      1504      1507      1509
      1505      1504      1507      1510      1506      1504      1507      1508
      1506      1504      1507      1509      1506      1504      1507      1510
      1507      1510      1513      1514      1507      1510      1513      1515
      1507      1510      1513      1516      1508      1507      1510      1511
      1508      1507      1510      1512      1508      1507      1510      1513
      1509      1507      1510      1511      1509      1507      1510      1512
      1509      1507      1510      1513      1510      1513      1516      1517
      1510      1513      1516      1518      1510      1513      1516      1519
      1511      1510      1513      1514      1511      1510      1513      1515
      1511      1510      1513      1516      1512      1510      1513      1514
      1512      1510      1513      1515      1512      1510      1513      1516
      1513      1516      1519      1520      1513      1516      1519      1521
      1513      1516      1519      1522      1514      1513      1516      1517
      1514      1513      1516      1518      1514      1513      1516      1519
      1515      1513      1516      1517      1515      1513      1516      1518
      1515      1513      1516      1519      1517      1516      1519      1520
      1517      1516      1519      1521      1517      1516      1519      1522
      1518      1516      1519      1520      1518      1516      1519      1521
      1518      1516      1519      1522      1523      1526      1529      1530
      1523      1526      1529      1531      1523      1526      1529      1532
      1524      1523      1526      1527      1524      1523      1526      1528
      1524      1523      1526      1529      1525      1523      1526      1527
      1525      1523      1526      1528      1525      1523      1526      1529
      1526      1529      1532      1533      1526      1529      1532      1534
      1526      1529      1532      1535      1527      1526      1529      1530
      1527      1526      1529      1531      1527      1526      1529      1532
      1528      1526      1529      1530      1528      1526      1529      1531
      1528      1526      1529      1532      1529      1532      1535      1536
      1529      1532      1535      1537      1529      1532      1535      1538
      1530      1529      1532      1533      1530      1529      1532      1534
      1530      1529      1532      1535      1531      1529      1532      1533
      1531      1529      1532      1534      1531      1529      1532      1535
      1532      1535      1538      1539      1532      1535      1538      1540
      1532      1535      1538      1541      1533      1532      1535      1536
      1533      1532      1535      1537      1533      1532      1535      1538
      1534      1532      1535      1536      1534      1532      1535      1537
      1534      1532      1535      1538      1535      1538      1541      1542
      1535      1538      1541      1543      1535      1538      1541      1544
      1536      1535      1538      1539      1536      1535      1538      1540
      1536      1535      1538      1541      1537      1535      1538      1539
      1537      1535      1538      1540      1537      1535      1538      1541
      1538      1541      1544      1545      1538      1541      1544      1546
      1538      1541      1544      1547      1539      1538      1541      1542
      1539      1538      1541      1543      1539      1538      1541      1544
      1540      1538      1541      1542      1540      1538      1541      1543
      1540      1538      1541      1544      1541      1544      1547      1548
      1541      1544      1547      1549      1541      1544      1547      1550
      1542      1541      1544      1545      1542      1541      1544      1546
      1542      1541      1544      1547      1543      1541      1544      1545
      1543      1541      1544      1546      1543      1541      1544      1547
      1544      1547      1550      1551      1544      1547      1550      1552
      1544      1547      1550      1553      1545      1544      1547      1548
      1545      1544      1547      1549      1545      1544      1547      1550
      1546      1544      1547      1548      1546      1544      1547      1549
      1546      1544      1547      1550      1547      1550      1553      1554
      1547      1550      1553      1555      1547      1550      1553      1556
      1548      1547      1550      1551      1548      1547      1550      1552
      1548      1547      1550      1553      1549      1547      1550      1551
      1549      1547      1550      1552      1549      1547      1550      1553
      1550      1553      1556      1557      1550      1553      1556      1558
      1550      1553      1556      1559      1551      1550      1553      1554
      1551      1550      1553      1555      1551      1550      1553      1556
      1552      1550      1553      1554      1552      1550      1553      1555
      1552      1550      1553      1556      1553      1556      1559      1560
      1553      1556      1559      1561      1553      1556      1559      1562
      1554      1553      1556      1557      1554      1553      1556      1558
      1554      1553      1556      1559      1555      1553      1556      1557
      1555      1553      1556      1558      1555      1553      1556      1559
      1556      1559      1562      1563      1556      1559      1562      1564
      1556      1559      1562      1565      1557      1556      1559      1560
      1557      1556      1559      1561      1557      1556      1559      1562
      1558      1556      1559      1560      1558      1556      1559      1561
      1558      1556      1559      1562      1560      1559      1562      1563
      1560      1559      1562      1564      1560      1559      1562      1565
      1561      1559      1562      1563      1561      1559      1562      1564
      1561      1559      1562      1565      1566      1567      1582      1583
      1566      1567      1582      1584      1566      1567      1582      1588
      1567      1566      1570      1571      1567      1566      1570      1572
      1567      1566      1570      1573      1567      1566      1574      1575
      1567      1566      1574      1576      1567      1566      1574      1577
      1567      1566      1578      1579      1567      1566      1578      1580
      1567      1566      1578      1581      1567      1582      1588      1585
      1568      1567      1566      1570      1568      1567      1566      1574
      1568      1567      1566      1578      1568      1567      1582      1583
      1568      1567      1582      1584      1568      1567      1582      1588
      1569      1567      1566      1570      1569      1567      1566      1574
      1569      1567      1566      1578      1569      1567      1582      1583
      1569      1567      1582      1584      1569      1567      1582      1588
      1570      1566      1567      1582      1570      1566      1574      1575
      1570      1566      1574      1576      1570      1566      1574      1577
      1570      1566      1578      1579      1570      1566      1578      1580
      1570      1566      1578      1581      1571      1570      1566      1574
      1571      1570      1566      1578      1572      1570      1566      1574
      1572      1570      1566      1578      1573      1570      1566      1574
      1573      1570      1566      1578      1574      1566      1567      1582
      1574      1566      1578      1579      1574      1566      1578      1580
      1574      1566      1578      1581      1575      1574      1566      1578
      1576      1574      1566      1578      1577      1574      1566      1578
      1578      1566      1567      1582      1582      1588      1585      1586
      1582      1588      1585      1587      1582      1588      1585      1589
      1583      1582      1588      1585      1584      1582      1588      1585
      1585      1589      1590      1591      1585      1589      1590      1592
      1585      1589      1590      1593      1586      1585      1589      1590
      1587      1585      1589      1590      1588      1585      1589      1590
      1589      1590      1593      1594      1589      1590      1593      1595
      1589      1590      1593      1601      1590      1593      1595      1596
      1590      1593      1601      1602      1590      1593      1601      1603
      1590      1593      1601      1604      1591      1590      1593      1594
      1591      1590      1593      1595      1591      1590      1593      1601
      1592      1590      1593      1594      1592      1590      1593      1595
      1592      1590      1593      1601      1593      1595      1596      1597
      1593      1595      1596      1598      1593      1601      1604      1605
      1594      1593      1595      1596      1594      1593      1601      1602
      1594      1593      1601      1603      1594      1593      1601      1604
      1595      1593      1601      1602      1595      1593      1601      1603
      1595      1593      1601      1604      1595      1596      1598      1599
      1595      1596      1598      1600      1595      1596      1598      1610
      1596      1595      1593      1601      1596      1598      1610      1611
      1596      1598      1610      1612      1596      1598      1610      1613
      1597      1596      1598      1599      1597      1596      1598      1600
      1597      1596      1598      1610      1598      1610      1613      1614
      1598      1610      1613      1615      1598      1610      1613      1616
      1599      1598      1610      1611      1599      1598      1610      1612
      1599      1598      1610      1613      1600      1598      1610      1611
      1600      1598      1610      1612      1600      1598      1610      1613
      1601      1604      1605      1606      1601      1604      1605      1607
      1602      1601      1604      1605      1603      1601      1604      1605
      1604      1605      1607      1608      1604      1605      1607      1609
      1604      1605      1607      1657      1605      1607      1657      1658
      1605      1607      1657      1659      1605      1607      1657      1660
      1606      1605      1607      1608      1606      1605      1607      1609
      1606      1605      1607      1657      1607      1657      1660      1661
      1607      1657      1660      1662      1607      1657      1660      1663
      1608      1607      1657      1658      1608      1607      1657      1659
      1608      1607      1657      1660      1609      1607      1657      1658
      1609      1607      1657      1659      1609      1607      1657      1660
      1610      1613      1616      1617      1610      1613      1616      1618
      1610      1613      1616      1619      1611      1610      1613      1614
      1611      1610      1613      1615      1611      1610      1613      1616
      1612      1610      1613      1614      1612      1610      1613      1615
      1612      1610      1613      1616      1613      1616      1619      1620
      1613      1616      1619      1621      1613      1616      1619      1622
      1614      1613      1616      1617      1614      1613      1616      1618
      1614      1613      1616      1619      1615      1613      1616      1617
      1615      1613      1616      1618      1615      1613      1616      1619
      1616      1619      1622      1623      1616      1619      1622      1624
      1616      1619      1622      1625      1617      1616      1619      1620
      1617      1616      1619      1621      1617      1616      1619      1622
      1618      1616      1619      1620      1618      1616      1619      1621
      1618      1616      1619      1622      1619      1622      1625      1626
      1619      1622      1625      1627      1619      1622      1625      1628
      1620      1619      1622      1623      1620      1619      1622      1624
      1620      1619      1622      1625      1621      1619      1622      1623
      1621      1619      1622      1624      1621      1619      1622      1625
      1622      1625      1628      1629      1622      1625      1628      1630
      1623      1622      1625      1626      1623      1622      1625      1627
      1623      1622      1625      1628      1624      1622      1625      1626
      1624      1622      1625      1627      1624      1622      1625      1628
      1625      1628      1630      1631      1625      1628      1630      1632
      1626      1625      1628      1629      1626      1625      1628      1630
      1627      1625      1628      1629      1627      1625      1628      1630
      1628      1630      1632      1633      1628      1630      1632      1634
      1628      1630      1632      1635      1629      1628      1630      1631
      1629      1628      1630      1632      1630      1632      1635      1636
      1630      1632      1635      1637      1630      1632      1635      1638
      1631      1630      1632      1633      1631      1630      1632      1634
      1631      1630      1632      1635      1632      1635      1638      1639
      1632      1635      1638      1640      1632      1635      1638      1641
      1633      1632      1635      1636      1633      1632      1635      1637
      1633      1632      1635      1638      1634      1632      1635      1636
      1634      1632      1635      1637      1634      1632      1635      1638
      1635      1638      1641      1642      1635      1638      1641      1643
      1635      1638      1641      1644      1636      1635      1638      1639
      1636      1635      1638      1640      1636      1635      1638      1641
      1637      1635      1638      1639      1637      1635      1638      1640
      1637      1635      1638      1641      1638      1641      1644      1645
      1638      1641      1644      1646      1638      1641      1644      1647
      1639      1638      1641      1642      1639      1638      1641      1643
      1639      1638      1641      1644      1640      1638      1641      1642
      1640      1638      1641      1643      1640      1638      1641      1644
      1641      1644      1647      1648      1641      1644      1647      1649
      1641      1644      1647      1650      1642      1641      1644      1645
      1642      1641      1644      1646      1642      1641      1644      1647
      1643      1641      1644      1645      1643      1641      1644      1646
      1643      1641      1644      1647      1644      1647      1650      1651
      1644      1647      1650      1652      1644      1647      1650      1653
      1645      1644      1647      1648      1645      1644      1647      1649
      1645      1644      1647      1650      1646      1644      1647      1648
      1646      1644      1647      1649      1646      1644      1647      1650
      1647      1650      1653      1654      1647      1650      1653      1655
      1647      1650      1653      1656      1648      1647      1650      1651
      1648      1647      1650      1652      1648      1647      1650      1653
      1649      1647      1650      1651      1649      1647      1650      1652
      1649      1647      1650      1653      1651      1650      1653      1654
      1651      1650      1653      1655      1651      1650      1653      1656
      1652      1650      1653      1654      1652      1650      1653      1655
      1652      1650      1653      1656      1657      1660      1663      1664
      1657      1660      1663      1665      1657      1660      1663      1666
      1658      1657      1660      1661      1658      1657      1660      1662
      1658      1657      1660      1663      1659      1657      1660      1661
      1659      1657      1660      1662      1659      1657      1660      1663
      1660      1663      1666      1667      1660      1663      1666      1668
      1660      1663      1666      1669      1661      1660      1663      1664
      1661      1660      1663      1665      1661      1660      1663      1666
      1662      1660      1663      1664      1662      1660      1663      1665
      1662      1660      1663      1666      1663      1666      1669      1670
      1663      1666      1669      1671      1663      1666      1669      1672
      1664      1663      1666      1667      1664      1663      1666      1668
      1664      1663      1666      1669      1665      1663      1666      1667
      1665      1663      1666      1668      1665      1663      1666      1669
      1666      1669      1672      1673      1666      1669      1672      1674
      1666      1669      1672      1675      1667      1666      1669      1670
      1667      1666      1669      1671      1667      1666      1669      1672
      1668      1666      1669      1670      1668      1666      1669      1671
      1668      1666      1669      1672      1669      1672      1675      1676
      1669      1672      1675      1677      1669      1672      1675      1678
      1670      1669      1672      1673      1670      1669      1672      1674
      1670      1669      1672      1675      1671      1669      1672      1673
      1671      1669      1672      1674      1671      1669      1672      1675
      1672      1675      1678      1679      1672      1675      1678      1680
      1672      1675      1678      1681      1673      1672      1675      1676
      1673      1672      1675      1677      1673      1672      1675      1678
      1674      1672      1675      1676      1674      1672      1675      1677
      1674      1672      1675      1678      1675      1678      1681      1682
      1675      1678      1681      1683      1675      1678      1681      1684
      1676      1675      1678      1679      1676      1675      1678      1680
      1676      1675      1678      1681      1677      1675      1678      1679
      1677      1675      1678      1680      1677      1675      1678      1681
      1678      1681      1684      1685      1678      1681      1684      1686
      1678      1681      1684      1687      1679      1678      1681      1682
      1679      1678      1681      1683      1679      1678      1681      1684
      1680      1678      1681      1682      1680      1678      1681      1683
      1680      1678      1681      1684      1681      1684      1687      1688
      1681      1684      1687      1689      1681      1684      1687      1690
      1682      1681      1684      1685      1682      1681      1684      1686
      1682      1681      1684      1687      1683      1681      1684      1685
      1683      1681      1684      1686      1683      1681      1684      1687
      1684      1687      1690      1691      1684      1687      1690      1692
      1684      1687      1690      1693      1685      1684      1687      1688
      1685      1684      1687      1689      1685      1684      1687      1690
      1686      1684      1687      1688      1686      1684      1687      1689
      1686      1684      1687      1690      1687      1690      1693      1694
      1687      1690      1693      1695      1687      1690      1693      1696
      1688      1687      1690      1691      1688      1687      1690      1692
      1688      1687      1690      1693      1689      1687      1690      1691
      1689      1687      1690      1692      1689      1687      1690      1693
      1690      1693      1696      1697      1690      1693      1696      1698
      1690      1693      1696      1699      1691      1690      1693      1694
      1691      1690      1693      1695      1691      1690      1693      1696
      1692      1690      1693      1694      1692      1690      1693      1695
      1692      1690      1693      1696      1694      1693      1696      1697
      1694      1693      1696      1698      1694      1693      1696      1699
      1695      1693      1696      1697      1695      1693      1696      1698
      1695      1693      1696      1699      1700      1704      1706      1707
      1700      1704      1706      1708      1700      1704      1709      1710
      1700      1704      1709      1711      1700      1704      1709      1715
      1701      1700      1704      1705      1701      1700      1704      1706
      1701      1700      1704      1709      1702      1700      1704      1705
      1702      1700      1704      1706      1702      1700      1704      1709
      1703      1700      1704      1705      1703      1700      1704      1706
      1703      1700      1704      1709      1704      1709      1715      1712
      1705      1704      1706      1707      1705      1704      1706      1708
      1705      1704      1709      1710      1705      1704      1709      1711
      1705      1704      1709      1715      1706      1704      1709      1710
      1706      1704      1709      1711      1706      1704      1709      1715
      1707      1706      1704      1709      1708      1706      1704      1709
      1709      1715      1712      1713      1709      1715      1712      1714
      1709      1715      1712      1716      1710      1709      1715      1712
      1711      1709      1715      1712      1712      1716      1717      1718
      1712      1716      1717      1719      1712      1716      1717      1720
      1713      1712      1716      1717      1714      1712      1716      1717
      1715      1712      1716      1717      1716      1717      1720      1721
      1716      1717      1720      1722      1716      1717      1720      1728
      1717      1720      1722      1723      1717      1720      1728      1729
      1717      1720      1728      1730      1717      1720      1728      1731
      1718      1717      1720      1721      1718      1717      1720      1722
      1718      1717      1720      1728      1719      1717      1720      1721
      1719      1717      1720      1722      1719      1717      1720      1728
      1720      1722      1723      1724      1720      1722      1723      1725
      1720      1728      1731      1732      1721      1720      1722      1723
      1721      1720      1728      1729      1721      1720      1728      1730
      1721      1720      1728      1731      1722      1720      1728      1729
      1722      1720      1728      1730      1722      1720      1728      1731
      1722      1723      1725      1726      1722      1723      1725      1727
      1722      1723      1725      1737      1723      1722      1720      1728
      1723      1725      1737      1738      1723      1725      1737      1739
      1723      1725      1737      1740      1724      1723      1725      1726
      1724      1723      1725      1727      1724      1723      1725      1737
      1725      1737      1740      1741      1725      1737      1740      1742
      1725      1737      1740      1743      1726      1725      1737      1738
      1726      1725      1737      1739      1726      1725      1737      1740
      1727      1725      1737      1738      1727      1725      1737      1739
      1727      1725      1737      1740      1728      1731      1732      1733
      1728      1731      1732      1734      1729      1728      1731      1732
      1730      1728      1731      1732      1731      1732      1734      1735
      1731      1732      1734      1736      1731      1732      1734      1784
      1732      1734      1784      1785      1732      1734      1784      1786
      1732      1734      1784      1787      1733      1732      1734      1735
      1733      1732      1734      1736      1733      1732      1734      1784
      1734      1784      1787      1788      1734      1784      1787      1789
      1734      1784      1787      1790      1735      1734      1784      1785
      1735      1734      1784      1786      1735      1734      1784      1787
      1736      1734      1784      1785      1736      1734      1784      1786
      1736      1734      1784      1787      1737      1740      1743      1744
      1737      1740      1743      1745      1737      1740      1743      1746
      1738      1737      1740      1741      1738      1737      1740      1742
      1738      1737      1740      1743      1739      1737      1740      1741
      1739      1737      1740      1742      1739      1737      1740      1743
      1740      1743      1746      1747      1740      1743      1746      1748
      1740      1743      1746      1749      1741      1740      1743      1744
      1741      1740      1743      1745      1741      1740      1743      1746
      1742      1740      1743      1744      1742      1740      1743      1745
      1742      1740      1743      1746      1743      1746      1749      1750
      1743      1746      1749      1751      1743      1746      1749      1752
      1744      1743      1746      1747      1744      1743      1746      1748
      1744      1743      1746      1749      1745      1743      1746      1747
      1745      1743      1746      1748      1745      1743      1746      1749
      1746      1749      1752      1753      1746      1749      1752      1754
      1746      1749      1752      1755      1747      1746      1749      1750
      1747      1746      1749      1751      1747      1746      1749      1752
      1748      1746      1749      1750      1748      1746      1749      1751
      1748      1746      1749      1752      1749      1752      1755      1756
      1749      1752      1755      1757      1750      1749      1752      1753
      1750      1749      1752      1754      1750      1749      1752      1755
      1751      1749      1752      1753      1751      1749      1752      1754
      1751      1749      1752      1755      1752      1755      1757      1758
      1752      1755      1757      1759      1753      1752      1755      1756
      1753      1752      1755      1757      1754      1752      1755      1756
      1754      1752      1755      1757      1755      1757      1759      1760
      1755      1757      1759      1761      1755      1757      1759      1762
      1756      1755      1757      1758      1756      1755      1757      1759
      1757      1759      1762      1763      1757      1759      1762      1764
      1757      1759      1762      1765      1758      1757      1759      1760
      1758      1757      1759      1761      1758      1757      1759      1762
      1759      1762      1765      1766      1759      1762      1765      1767
      1759      1762      1765      1768      1760      1759      1762      1763
      1760      1759      1762      1764      1760      1759      1762      1765
      1761      1759      1762      1763      1761      1759      1762      1764
      1761      1759      1762      1765      1762      1765      1768      1769
      1762      1765      1768      1770      1762      1765      1768      1771
      1763      1762      1765      1766      1763      1762      1765      1767
      1763      1762      1765      1768      1764      1762      1765      1766
      1764      1762      1765      1767      1764      1762      1765      1768
      1765      1768      1771      1772      1765      1768      1771      1773
      1765      1768      1771      1774      1766      1765      1768      1769
      1766      1765      1768      1770      1766      1765      1768      1771
      1767      1765      1768      1769      1767      1765      1768      1770
      1767      1765      1768      1771      1768      1771      1774      1775
      1768      1771      1774      1776      1768      1771      1774      1777
      1769      1768      1771      1772      1769      1768      1771      1773
      1769      1768      1771      1774      1770      1768      1771      1772
      1770      1768      1771      1773      1770      1768      1771      1774
      1771      1774      1777      1778      1771      1774      1777      1779
      1771      1774      1777      1780      1772      1771      1774      1775
      1772      1771      1774      1776      1772      1771      1774      1777
      1773      1771      1774      1775      1773      1771      1774      1776
      1773      1771      1774      1777      1774      1777      1780      1781
      1774      1777      1780      1782      1774      1777      1780      1783
      1775      1774      1777      1778      1775      1774      1777      1779
      1775      1774      1777      1780      1776      1774      1777      1778
      1776      1774      1777      1779      1776      1774      1777      1780
      1778      1777      1780      1781      1778      1777      1780      1782
      1778      1777      1780      1783      1779      1777      1780      1781
      1779      1777      1780      1782      1779      1777      1780      1783
      1784      1787      1790      1791      1784      1787      1790      1792
      1784      1787      1790      1793      1785      1784      1787      1788
      1785      1784      1787      1789      1785      1784      1787      1790
      1786      1784      1787      1788      1786      1784      1787      1789
      1786      1784      1787      1790      1787      1790      1793      1794
      1787      1790      1793      1795      1787      1790      1793      1796
      1788      1787      1790      1791      1788      1787      1790      1792
      1788      1787      1790      1793      1789      1787      1790      1791
      1789      1787      1790      1792      1789      1787      1790      1793
      1790      1793      1796      1797      1790      1793      1796      1798
      1790      1793      1796      1799      1791      1790      1793      1794
      1791      1790      1793      1795      1791      1790      1793      1796
      1792      1790      1793      1794      1792      1790      1793      1795
      1792      1790      1793      1796      1793      1796      1799      1800
      1793      1796      1799      1801      1793      1796      1799      1802
      1794      1793      1796      1797      1794      1793      1796      1798
      1794      1793      1796      1799      1795      1793      1796      1797
      1795      1793      1796      1798      1795      1793      1796      1799
      1796      1799      1802      1803      1796      1799      1802      1804
      1796      1799      1802      1805      1797      1796      1799      1800
      1797      1796      1799      1801      1797      1796      1799      1802
      1798      1796      1799      1800      1798      1796      1799      1801
      1798      1796      1799      1802      1799      1802      1805      1806
      1799      1802      1805      1807      1799      1802      1805      1808
      1800      1799      1802      1803      1800      1799      1802      1804
      1800      1799      1802      1805      1801      1799      1802      1803
      1801      1799      1802      1804      1801      1799      1802      1805
      1802      1805      1808      1809      1802      1805      1808      1810
      1802      1805      1808      1811      1803      1802      1805      1806
      1803      1802      1805      1807      1803      1802      1805      1808
      1804      1802      1805      1806      1804      1802      1805      1807
      1804      1802      1805      1808      1805      1808      1811      1812
      1805      1808      1811      1813      1805      1808      1811      1814
      1806      1805      1808      1809      1806      1805      1808      1810
      1806      1805      1808      1811      1807      1805      1808      1809
      1807      1805      1808      1810      1807      1805      1808      1811
      1808      1811      1814      1815      1808      1811      1814      1816
      1808      1811      1814      1817      1809      1808      1811      1812
      1809      1808      1811      1813      1809      1808      1811      1814
      1810      1808      1811      1812      1810      1808      1811      1813
      1810      1808      1811      1814      1811      1814      1817      1818
      1811      1814      1817      1819      1811      1814      1817      1820
      1812      1811      1814      1815      1812      1811      1814      1816
      1812      1811      1814      1817      1813      1811      1814      1815
      1813      1811      1814      1816      1813      1811      1814      1817
      1814      1817      1820      1821      1814      1817      1820      1822
      1814      1817      1820      1823      1815      1814      1817      1818
      1815      1814      1817      1819      1815      1814      1817      1820
      1816      1814      1817      1818      1816      1814      1817      1819
      1816      1814      1817      1820      1817      1820      1823      1824
      1817      1820      1823      1825      1817      1820      1823      1826
      1818      1817      1820      1821      1818      1817      1820      1822
      1818      1817      1820      1823      1819      1817      1820      1821
      1819      1817      1820      1822      1819      1817      1820      1823
      1821      1820      1823      1824      1821      1820      1823      1825
      1821      1820      1823      1826      1822      1820      1823      1824
      1822      1820      1823      1825      1822      1820      1823      1826
      1827      1828      1843      1844      1827      1828      1843      1845
      1827      1828      1843      1849      1828      1827      1831      1832
      1828      1827      1831      1833      1828      1827      1831      1834
      1828      1827      1835      1836      1828      1827      1835      1837
      1828      1827      1835      1838      1828      1827      1839      1840
      1828      1827      1839      1841      1828      1827      1839      1842
      1828      1843      1849      1846      1829      1828      1827      1831
      1829      1828      1827      1835      1829      1828      1827      1839
      1829      1828      1843      1844      1829      1828      1843      1845
      1829      1828      1843      1849      1830      1828      1827      1831
      1830      1828      1827      1835      1830      1828      1827      1839
      1830      1828      1843      1844      1830      1828      1843      1845
      1830      1828      1843      1849      1831      1827      1828      1843
      1831      1827      1835      1836      1831      1827      1835      1837
      1831      1827      1835      1838      1831      1827      1839      1840
      1831      1827      1839      1841      1831      1827      1839      1842
      1832      1831      1827      1835      1832      1831      1827      1839
      1833      1831      1827      1835      1833      1831      1827      1839
      1834      1831      1827      1835      1834      1831      1827      1839
      1835      1827      1828      1843      1835      1827      1839      1840
      1835      1827      1839      1841      1835      1827      1839      1842
      1836      1835      1827      1839      1837      1835      1827      1839
      1838      1835      1827      1839      1839      1827      1828      1843
      1843      1849      1846      1847      1843      1849      1846      1848
      1843      1849      1846      1850      1844      1843      1849      1846
      1845      1843      1849      1846      1846      1850      1851      1852
      1846      1850      1851      1853      1846      1850      1851      1854
      1847      1846      1850      1851      1848      1846      1850      1851
      1849      1846      1850      1851      1850      1851      1854      1855
      1850      1851      1854      1856      1850      1851      1854      1862
      1851      1854      1856      1857      1851      1854      1862      1863
      1851      1854      1862      1864      1851      1854      1862      1865
      1852      1851      1854      1855      1852      1851      1854      1856
      1852      1851      1854      1862      1853      1851      1854      1855
      1853      1851      1854      1856      1853      1851      1854      1862
      1854      1856      1857      1858      1854      1856      1857      1859
      1854      1862      1865      1866      1855      1854      1856      1857
      1855      1854      1862      1863      1855      1854      1862      1864
      1855      1854      1862      1865      1856      1854      1862      1863
      1856      1854      1862      1864      1856      1854      1862      1865
      1856      1857      1859      1860      1856      1857      1859      1861
      1856      1857      1859      1871      1857      1856      1854      1862
      1857      1859      1871      1872      1857      1859      1871      1873
      1857      1859      1871      1874      1858      1857      1859      1860
      1858      1857      1859      1861      1858      1857      1859      1871
      1859      1871      1874      1875      1859      1871      1874      1876
      1859      1871      1874      1877      1860      1859      1871      1872
      1860      1859      1871      1873      1860      1859      1871      1874
      1861      1859      1871      1872      1861      1859      1871      1873
      1861      1859      1871      1874      1862      1865      1866      1867
      1862      1865      1866      1868      1863      1862      1865      1866
      1864      1862      1865      1866      1865      1866      1868      1869
      1865      1866      1868      1870      1865      1866      1868      1918
      1866      1868      1918      1919      1866      1868      1918      1920
      1866      1868      1918      1921      1867      1866      1868      1869
      1867      1866      1868      1870      1867      1866      1868      1918
      1868      1918      1921      1922      1868      1918      1921      1923
      1868      1918      1921      1924      1869      1868      1918      1919
      1869      1868      1918      1920      1869      1868      1918      1921
      1870      1868      1918      1919      1870      1868      1918      1920
      1870      1868      1918      1921      1871      1874      1877      1878
      1871      1874      1877      1879      1871      1874      1877      1880
      1872      1871      1874      1875      1872      1871      1874      1876
      1872      1871      1874      1877      1873      1871      1874      1875
      1873      1871      1874      1876      1873      1871      1874      1877
      1874      1877      1880      1881      1874      1877      1880      1882
      1874      1877      1880      1883      1875      1874      1877      1878
      1875      1874      1877      1879      1875      1874      1877      1880
      1876      1874      1877      1878      1876      1874      1877      1879
      1876      1874      1877      1880      1877      1880      1883      1884
      1877      1880      1883      1885      1877      1880      1883      1886
      1878      1877      1880      1881      1878      1877      1880      1882
      1878      1877      1880      1883      1879      1877      1880      1881
      1879      1877      1880      1882      1879      1877      1880      1883
      1880      1883      1886      1887      1880      1883      1886      1888
      1880      1883      1886      1889      1881      1880      1883      1884
      1881      1880      1883      1885      1881      1880      1883      1886
      1882      1880      1883      1884      1882      1880      1883      1885
      1882      1880      1883      1886      1883      1886      1889      1890
      1883      1886      1889      1891      1884      1883      1886      1887
      1884      1883      1886      1888      1884      1883      1886      1889
      1885      1883      1886      1887      1885      1883      1886      1888
      1885      1883      1886      1889      1886      1889      1891      1892
      1886      1889      1891      1893      1887      1886      1889      1890
      1887      1886      1889      1891      1888      1886      1889      1890
      1888      1886      1889      1891      1889      1891      1893      1894
      1889      1891      1893      1895      1889      1891      1893      1896
      1890      1889      1891      1892      1890      1889      1891      1893
      1891      1893      1896      1897      1891      1893      1896      1898
      1891      1893      1896      1899      1892      1891      1893      1894
      1892      1891      1893      1895      1892      1891      1893      1896
      1893      1896      1899      1900      1893      1896      1899      1901
      1893      1896      1899      1902      1894      1893      1896      1897
      1894      1893      1896      1898      1894      1893      1896      1899
      1895      1893      1896      1897      1895      1893      1896      1898
      1895      1893      1896      1899      1896      1899      1902      1903
      1896      1899      1902      1904      1896      1899      1902      1905
      1897      1896      1899      1900      1897      1896      1899      1901
      1897      1896      1899      1902      1898      1896      1899      1900
      1898      1896      1899      1901      1898      1896      1899      1902
      1899      1902      1905      1906      1899      1902      1905      1907
      1899      1902      1905      1908      1900      1899      1902      1903
      1900      1899      1902      1904      1900      1899      1902      1905
      1901      1899      1902      1903      1901      1899      1902      1904
      1901      1899      1902      1905      1902      1905      1908      1909
      1902      1905      1908      1910      1902      1905      1908      1911
      1903      1902      1905      1906      1903      1902      1905      1907
      1903      1902      1905      1908      1904      1902      1905      1906
      1904      1902      1905      1907      1904      1902      1905      1908
      1905      1908      1911      1912      1905      1908      1911      1913
      1905      1908      1911      1914      1906      1905      1908      1909
      1906      1905      1908      1910      1906      1905      1908      1911
      1907      1905      1908      1909      1907      1905      1908      1910
      1907      1905      1908      1911      1908      1911      1914      1915
      1908      1911      1914      1916      1908      1911      1914      1917
      1909      1908      1911      1912      1909      1908      1911      1913
      1909      1908      1911      1914      1910      1908      1911      1912
      1910      1908      1911      1913      1910      1908      1911      1914
      1912      1911      1914      1915      1912      1911      1914      1916
      1912      1911      1914      1917      1913      1911      1914      1915
      1913      1911      1914      1916      1913      1911      1914      1917
      1918      1921      1924      1925      1918      1921      1924      1926
      1918      1921      1924      1927      1919      1918      1921      1922
      1919      1918      1921      1923      1919      1918      1921      1924
      1920      1918      1921      1922      1920      1918      1921      1923
      1920      1918      1921      1924      1921      1924      1927      1928
      1921      1924      1927      1929      1921      1924      1927      1930
      1922      1921      1924      1925      1922      1921      1924      1926
      1922      1921      1924      1927      1923      1921      1924      1925
      1923      1921      1924      1926      1923      1921      1924      1927
      1924      1927      1930      1931      1924      1927      1930      1932
      1924      1927      1930      1933      1925      1924      1927      1928
      1925      1924      1927      1929      1925      1924      1927      1930
      1926      1924      1927      1928      1926      1924      1927      1929
      1926      1924      1927      1930      1927      1930      1933      1934
      1927      1930      1933      1935      1927      1930      1933      1936
      1928      1927      1930      1931      1928      1927      1930      1932
      1928      1927      1930      1933      1929      1927      1930      1931
      1929      1927      1930      1932      1929      1927      1930      1933
      1930      1933      1936      1937      1930      1933      1936      1938
      1930      1933      1936      1939      1931      1930      1933      1934
      1931      1930      1933      1935      1931      1930      1933      1936
      1932      1930      1933      1934      1932      1930      1933      1935
      1932      1930      1933      1936      1933      1936      1939      1940
      1933      1936      1939      1941      1933      1936      1939      1942
      1934      1933      1936      1937      1934      1933      1936      1938
      1934      1933      1936      1939      1935      1933      1936      1937
      1935      1933      1936      1938      1935      1933      1936      1939
      1936      1939      1942      1943      1936      1939      1942      1944
      1936      1939      1942      1945      1937      1936      1939      1940
      1937      1936      1939      1941      1937      1936      1939      1942
      1938      1936      1939      1940      1938      1936      1939      1941
      1938      1936      1939      1942      1939      1942      1945      1946
      1939      1942      1945      1947      1939      1942      1945      1948
      1940      1939      1942      1943      1940      1939      1942      1944
      1940      1939      1942      1945      1941      1939      1942      1943
      1941      1939      1942      1944      1941      1939      1942      1945
      1942      1945      1948      1949      1942      1945      1948      1950
      1942      1945      1948      1951      1943      1942      1945      1946
      1943      1942      1945      1947      1943      1942      1945      1948
      1944      1942      1945      1946      1944      1942      1945      1947
      1944      1942      1945      1948      1945      1948      1951      1952
      1945      1948      1951      1953      1945      1948      1951      1954
      1946      1945      1948      1949      1946      1945      1948      1950
      1946      1945      1948      1951      1947      1945      1948      1949
      1947      1945      1948      1950      1947      1945      1948      1951
      1948      1951      1954      1955      1948      1951      1954      1956
      1948      1951      1954      1957      1949      1948      1951      1952
      1949      1948      1951      1953      1949      1948      1951      1954
      1950      1948      1951      1952      1950      1948      1951      1953
      1950      1948      1951      1954      1951      1954      1957      1958
      1951      1954      1957      1959      1951      1954      1957      1960
      1952      1951      1954      1955      1952      1951      1954      1956
      1952      1951      1954      1957      1953      1951      1954      1955
      1953      1951      1954      1956      1953      1951      1954      1957
      1955      1954      1957      1958      1955      1954      1957      1959
      1955      1954      1957      1960      1956      1954      1957      1958
      1956      1954      1957      1959      1956      1954      1957      1960
      1961      1962      1977      1978      1961      1962      1977      1979
      1961      1962      1977      1983      1962      1961      1965      1966
      1962      1961      1965      1967      1962      1961      1965      1968
      1962      1961      1969      1970      1962      1961      1969      1971
      1962      1961      1969      1972      1962      1961      1973      1974
      1962      1961      1973      1975      1962      1961      1973      1976
      1962      1977      1983      1980      1963      1962      1961      1965
      1963      1962      1961      1969      1963      1962      1961      1973
      1963      1962      1977      1978      1963      1962      1977      1979
      1963      1962      1977      1983      1964      1962      1961      1965
      1964      1962      1961      1969      1964      1962      1961      1973
      1964      1962      1977      1978      1964      1962      1977      1979
      1964      1962      1977      1983      1965      1961      1962      1977
      1965      1961      1969      1970      1965      1961      1969      1971
      1965      1961      1969      1972      1965      1961      1973      1974
      1965      1961      1973      1975      1965      1961      1973      1976
      1966      1965      1961      1969      1966      1965      1961      1973
      1967      1965      1961      1969      1967      1965      1961      1973
      1968      1965      1961      1969      1968      1965      1961      1973
      1969      1961      1962      1977      1969      1961      1973      1974
      1969      1961      1973      1975      1969      1961      1973      1976
      1970      1969      1961      1973      1971      1969      1961      1973
      1972      1969      1961      1973      1973      1961      1962      1977
      1977      1983      1980      1981      1977      1983      1980      1982
      1977      1983      1980      1984      1978      1977      1983      1980
      1979      1977      1983      1980      1980      1984      1985      1986
      1980      1984      1985      1987      1980      1984      1985      1988
      1981      1980      1984      1985      1982      1980      1984      1985
      1983      1980      1984      1985      1984      1985      1988      1989
      1984      1985      1988      1990      1984      1985      1988      1996
      1985      1988      1990      1991      1985      1988      1996      1997
      1985      1988      1996      1998      1985      1988      1996      1999
      1986      1985      1988      1989      1986      1985      1988      1990
      1986      1985      1988      1996      1987      1985      1988      1989
      1987      1985      1988      1990      1987      1985      1988      1996
      1988      1990      1991      1992      1988      1990      1991      1993
      1988      1996      1999      2000      1989      1988      1990      1991
      1989      1988      1996      1997      1989      1988      1996      1998
      1989      1988      1996      1999      1990      1988      1996      1997
      1990      1988      1996      1998      1990      1988      1996      1999
      1990      1991      1993      1994      1990      1991      1993      1995
      1990      1991      1993      2005      1991      1990      1988      1996
      1991      1993      2005      2006      1991      1993      2005      2007
      1991      1993      2005      2008      1992      1991      1993      1994
      1992      1991      1993      1995      1992      1991      1993      2005
      1993      2005      2008      2009      1993      2005      2008      2010
      1993      2005      2008      2011      1994      1993      2005      2006
      1994      1993      2005      2007      1994      1993      2005      2008
      1995      1993      2005      2006      1995      1993      2005      2007
      1995      1993      2005      2008      1996      1999      2000      2001
      1996      1999      2000      2002      1997      1996      1999      2000
      1998      1996      1999      2000      1999      2000      2002      2003
      1999      2000      2002      2004      1999      2000      2002      2052
      2000      2002      2052      2053      2000      2002      2052      2054
      2000      2002      2052      2055      2001      2000      2002      2003
      2001      2000      2002      2004      2001      2000      2002      2052
      2002      2052      2055      2056      2002      2052      2055      2057
      2002      2052      2055      2058      2003      2002      2052      2053
      2003      2002      2052      2054      2003      2002      2052      2055
      2004      2002      2052      2053      2004      2002      2052      2054
      2004      2002      2052      2055      2005      2008      2011      2012
      2005      2008      2011      2013      2005      2008      2011      2014
      2006      2005      2008      2009      2006      2005      2008      2010
      2006      2005      2008      2011      2007      2005      2008      2009
      2007      2005      2008      2010      2007      2005      2008      2011
      2008      2011      2014      2015      2008      2011      2014      2016
      2008      2011      2014      2017      2009      2008      2011      2012
      2009      2008      2011      2013      2009      2008      2011      2014
      2010      2008      2011      2012      2010      2008      2011      2013
      2010      2008      2011      2014      2011      2014      2017      2018
      2011      2014      2017      2019      2011      2014      2017      2020
      2012      2011      2014      2015      2012      2011      2014      2016
      2012      2011      2014      2017      2013      2011      2014      2015
      2013      2011      2014      2016      2013      2011      2014      2017
      2014      2017      2020      2021      2014      2017      2020      2022
      2014      2017      2020      2023      2015      2014      2017      2018
      2015      2014      2017      2019      2015      2014      2017      2020
      2016      2014      2017      2018      2016      2014      2017      2019
      2016      2014      2017      2020      2017      2020      2023      2024
      2017      2020      2023      2025      2018      2017      2020      2021
      2018      2017      2020      2022      2018      2017      2020      2023
      2019      2017      2020      2021      2019      2017      2020      2022
      2019      2017      2020      2023      2020      2023      2025      2026
      2020      2023      2025      2027      2021      2020      2023      2024
      2021      2020      2023      2025      2022      2020      2023      2024
      2022      2020      2023      2025      2023      2025      2027      2028
      2023      2025      2027      2029      2023      2025      2027      2030
      2024      2023      2025      2026      2024      2023      2025      2027
      2025      2027      2030      2031      2025      2027      2030      2032
      2025      2027      2030      2033      2026      2025      2027      2028
      2026      2025      2027      2029      2026      2025      2027      2030
      2027      2030      2033      2034      2027      2030      2033      2035
      2027      2030      2033      2036      2028      2027      2030      2031
      2028      2027      2030      2032      2028      2027      2030      2033
      2029      2027      2030      2031      2029      2027      2030      2032
      2029      2027      2030      2033      2030      2033      2036      2037
      2030      2033      2036      2038      2030      2033      2036      2039
      2031      2030      2033      2034      2031      2030      2033      2035
      2031      2030      2033      2036      2032      2030      2033      2034
      2032      2030      2033      2035      2032      2030      2033      2036
      2033      2036      2039      2040      2033      2036      2039      2041
      2033      2036      2039      2042      2034      2033      2036      2037
      2034      2033      2036      2038      2034      2033      2036      2039
      2035      2033      2036      2037      2035      2033      2036      2038
      2035      2033      2036      2039      2036      2039      2042      2043
      2036      2039      2042      2044      2036      2039      2042      2045
      2037      2036      2039      2040      2037      2036      2039      2041
      2037      2036      2039      2042      2038      2036      2039      2040
      2038      2036      2039      2041      2038      2036      2039      2042
      2039      2042      2045      2046      2039      2042      2045      2047
      2039      2042      2045      2048      2040      2039      2042      2043
      2040      2039      2042      2044      2040      2039      2042      2045
      2041      2039      2042      2043      2041      2039      2042      2044
      2041      2039      2042      2045      2042      2045      2048      2049
      2042      2045      2048      2050      2042      2045      2048      2051
      2043      2042      2045      2046      2043      2042      2045      2047
      2043      2042      2045      2048      2044      2042      2045      2046
      2044      2042      2045      2047      2044      2042      2045      2048
      2046      2045      2048      2049      2046      2045      2048      2050
      2046      2045      2048      2051      2047      2045      2048      2049
      2047      2045      2048      2050      2047      2045      2048      2051
      2052      2055      2058      2059      2052      2055      2058      2060
      2052      2055      2058      2061      2053      2052      2055      2056
      2053      2052      2055      2057      2053      2052      2055      2058
      2054      2052      2055      2056      2054      2052      2055      2057
      2054      2052      2055      2058      2055      2058      2061      2062
      2055      2058      2061      2063      2055      2058      2061      2064
      2056      2055      2058      2059      2056      2055      2058      2060
      2056      2055      2058      2061      2057      2055      2058      2059
      2057      2055      2058      2060      2057      2055      2058      2061
      2058      2061      2064      2065      2058      2061      2064      2066
      2058      2061      2064      2067      2059      2058      2061      2062
      2059      2058      2061      2063      2059      2058      2061      2064
      2060      2058      2061      2062      2060      2058      2061      2063
      2060      2058      2061      2064      2061      2064      2067      2068
      2061      2064      2067      2069      2061      2064      2067      2070
      2062      2061      2064      2065      2062      2061      2064      2066
      2062      2061      2064      2067      2063      2061      2064      2065
      2063      2061      2064      2066      2063      2061      2064      2067
      2064      2067      2070      2071      2064      2067      2070      2072
      2064      2067      2070      2073      2065      2064      2067      2068
      2065      2064      2067      2069      2065      2064      2067      2070
      2066      2064      2067      2068      2066      2064      2067      2069
      2066      2064      2067      2070      2067      2070      2073      2074
      2067      2070      2073      2075      2067      2070      2073      2076
      2068      2067      2070      2071      2068      2067      2070      2072
      2068      2067      2070      2073      2069      2067      2070      2071
      2069      2067      2070      2072      2069      2067      2070      2073
      2070      2073      2076      2077      2070      2073      2076      2078
      2070      2073      2076      2079      2071      2070      2073      2074
      2071      2070      2073      2075      2071      2070      2073      2076
      2072      2070      2073      2074      2072      2070      2073      2075
      2072      2070      2073      2076      2073      2076      2079      2080
      2073      2076      2079      2081      2073      2076      2079      2082
      2074      2073      2076      2077      2074      2073      2076      2078
      2074      2073      2076      2079      2075      2073      2076      2077
      2075      2073      2076      2078      2075      2073      2076      2079
      2076      2079      2082      2083      2076      2079      2082      2084
      2076      2079      2082      2085      2077      2076      2079      2080
      2077      2076      2079      2081      2077      2076      2079      2082
      2078      2076      2079      2080      2078      2076      2079      2081
      2078      2076      2079      2082      2079      2082      2085      2086
      2079      2082      2085      2087      2079      2082      2085      2088
      2080      2079      2082      2083      2080      2079      2082      2084
      2080      2079      2082      2085      2081      2079      2082      2083
      2081      2079      2082      2084      2081      2079      2082      2085
      2082      2085      2088      2089      2082      2085      2088      2090
      2082      2085      2088      2091      2083      2082      2085      2086
      2083      2082      2085      2087      2083      2082      2085      2088
      2084      2082      2085      2086      2084      2082      2085      2087
      2084      2082      2085      2088      2085      2088      2091      2092
      2085      2088      2091      2093      2085      2088      2091      2094
      2086      2085      2088      2089      2086      2085      2088      2090
      2086      2085      2088      2091      2087      2085      2088      2089
      2087      2085      2088      2090      2087      2085      2088      2091
      2089      2088      2091      2092      2089      2088      2091      2093
      2089      2088      2091      2094      2090      2088      2091      2092
      2090      2088      2091      2093      2090      2088      2091      2094
      2095      2096      2111      2112      2095      2096      2111      2113
      2095      2096      2111      2117      2096      2095      2099      2100
      2096      2095      2099      2101      2096      2095      2099      2102
      2096      2095      2103      2104      2096      2095      2103      2105
      2096      2095      2103      2106      2096      2095      2107      2108
      2096      2095      2107      2109      2096      2095      2107      2110
      2096      2111      2117      2114      2097      2096      2095      2099
      2097      2096      2095      2103      2097      2096      2095      2107
      2097      2096      2111      2112      2097      2096      2111      2113
      2097      2096      2111      2117      2098      2096      2095      2099
      2098      2096      2095      2103      2098      2096      2095      2107
      2098      2096      2111      2112      2098      2096      2111      2113
      2098      2096      2111      2117      2099      2095      2096      2111
      2099      2095      2103      2104      2099      2095      2103      2105
      2099      2095      2103      2106      2099      2095      2107      2108
      2099      2095      2107      2109      2099      2095      2107      2110
      2100      2099      2095      2103      2100      2099      2095      2107
      2101      2099      2095      2103      2101      2099      2095      2107
      2102      2099      2095      2103      2102      2099      2095      2107
      2103      2095      2096      2111      2103      2095      2107      2108
      2103      2095      2107      2109      2103      2095      2107      2110
      2104      2103      2095      2107      2105      2103      2095      2107
      2106      2103      2095      2107      2107      2095      2096      2111
      2111      2117      2114      2115      2111      2117      2114      2116
      2111      2117      2114      2118      2112      2111      2117      2114
      2113      2111      2117      2114      2114      2118      2119      2120
      2114      2118      2119      2121      2114      2118      2119      2122
      2115      2114      2118      2119      2116      2114      2118      2119
      2117      2114      2118      2119      2118      2119      2122      2123
      2118      2119      2122      2124      2118      2119      2122      2130
      2119      2122      2124      2125      2119      2122      2130      2131
      2119      2122      2130      2132      2119      2122      2130      2133
      2120      2119      2122      2123      2120      2119      2122      2124
      2120      2119      2122      2130      2121      2119      2122      2123
      2121      2119      2122      2124      2121      2119      2122      2130
      2122      2124      2125      2126      2122      2124      2125      2127
      2122      2130      2133      2134      2123      2122      2124      2125
      2123      2122      2130      2131      2123      2122      2130      2132
      2123      2122      2130      2133      2124      2122      2130      2131
      2124      2122      2130      2132      2124      2122      2130      2133
      2124      2125      2127      2128      2124      2125      2127      2129
      2124      2125      2127      2139      2125      2124      2122      2130
      2125      2127      2139      2140      2125      2127      2139      2141
      2125      2127      2139      2142      2126      2125      2127      2128
      2126      2125      2127      2129      2126      2125      2127      2139
      2127      2139      2142      2143      2127      2139      2142      2144
      2127      2139      2142      2145      2128      2127      2139      2140
      2128      2127      2139      2141      2128      2127      2139      2142
      2129      2127      2139      2140      2129      2127      2139      2141
      2129      2127      2139      2142      2130      2133      2134      2135
      2130      2133      2134      2136      2131      2130      2133      2134
      2132      2130      2133      2134      2133      2134      2136      2137
      2133      2134      2136      2138      2133      2134      2136      2186
      2134      2136      2186      2187      2134      2136      2186      2188
      2134      2136      2186      2189      2135      2134      2136      2137
      2135      2134      2136      2138      2135      2134      2136      2186
      2136      2186      2189      2190      2136      2186      2189      2191
      2136      2186      2189      2192      2137      2136      2186      2187
      2137      2136      2186      2188      2137      2136      2186      2189
      2138      2136      2186      2187      2138      2136      2186      2188
      2138      2136      2186      2189      2139      2142      2145      2146
      2139      2142      2145      2147      2139      2142      2145      2148
      2140      2139      2142      2143      2140      2139      2142      2144
      2140      2139      2142      2145      2141      2139      2142      2143
      2141      2139      2142      2144      2141      2139      2142      2145
      2142      2145      2148      2149      2142      2145      2148      2150
      2142      2145      2148      2151      2143      2142      2145      2146
      2143      2142      2145      2147      2143      2142      2145      2148
      2144      2142      2145      2146      2144      2142      2145      2147
      2144      2142      2145      2148      2145      2148      2151      2152
      2145      2148      2151      2153      2145      2148      2151      2154
      2146      2145      2148      2149      2146      2145      2148      2150
      2146      2145      2148      2151      2147      2145      2148      2149
      2147      2145      2148      2150      2147      2145      2148      2151
      2148      2151      2154      2155      2148      2151      2154      2156
      2148      2151      2154      2157      2149      2148      2151      2152
      2149      2148      2151      2153      2149      2148      2151      2154
      2150      2148      2151      2152      2150      2148      2151      2153
      2150      2148      2151      2154      2151      2154      2157      2158
      2151      2154      2157      2159      2152      2151      2154      2155
      2152      2151      2154      2156      2152      2151      2154      2157
      2153      2151      2154      2155      2153      2151      2154      2156
      2153      2151      2154      2157      2154      2157      2159      2160
      2154      2157      2159      2161      2155      2154      2157      2158
      2155      2154      2157      2159      2156      2154      2157      2158
      2156      2154      2157      2159      2157      2159      2161      2162
      2157      2159      2161      2163      2157      2159      2161      2164
      2158      2157      2159      2160      2158      2157      2159      2161
      2159      2161      2164      2165      2159      2161      2164      2166
      2159      2161      2164      2167      2160      2159      2161      2162
      2160      2159      2161      2163      2160      2159      2161      2164
      2161      2164      2167      2168      2161      2164      2167      2169
      2161      2164      2167      2170      2162      2161      2164      2165
      2162      2161      2164      2166      2162      2161      2164      2167
      2163      2161      2164      2165      2163      2161      2164      2166
      2163      2161      2164      2167      2164      2167      2170      2171
      2164      2167      2170      2172      2164      2167      2170      2173
      2165      2164      2167      2168      2165      2164      2167      2169
      2165      2164      2167      2170      2166      2164      2167      2168
      2166      2164      2167      2169      2166      2164      2167      2170
      2167      2170      2173      2174      2167      2170      2173      2175
      2167      2170      2173      2176      2168      2167      2170      2171
      2168      2167      2170      2172      2168      2167      2170      2173
      2169      2167      2170      2171      2169      2167      2170      2172
      2169      2167      2170      2173      2170      2173      2176      2177
      2170      2173      2176      2178      2170      2173      2176      2179
      2171      2170      2173      2174      2171      2170      2173      2175
      2171      2170      2173      2176      2172      2170      2173      2174
      2172      2170      2173      2175      2172      2170      2173      2176
      2173      2176      2179      2180      2173      2176      2179      2181
      2173      2176      2179      2182      2174      2173      2176      2177
      2174      2173      2176      2178      2174      2173      2176      2179
      2175      2173      2176      2177      2175      2173      2176      2178
      2175      2173      2176      2179      2176      2179      2182      2183
      2176      2179      2182      2184      2176      2179      2182      2185
      2177      2176      2179      2180      2177      2176      2179      2181
      2177      2176      2179      2182      2178      2176      2179      2180
      2178      2176      2179      2181      2178      2176      2179      2182
      2180      2179      2182      2183      2180      2179      2182      2184
      2180      2179      2182      2185      2181      2179      2182      2183
      2181      2179      2182      2184      2181      2179      2182      2185
      2186      2189      2192      2193      2186      2189      2192      2194
      2186      2189      2192      2195      2187      2186      2189      2190
      2187      2186      2189      2191      2187      2186      2189      2192
      2188      2186      2189      2190      2188      2186      2189      2191
      2188      2186      2189      2192      2189      2192      2195      2196
      2189      2192      2195      2197      2189      2192      2195      2198
      2190      2189      2192      2193      2190      2189      2192      2194
      2190      2189      2192      2195      2191      2189      2192      2193
      2191      2189      2192      2194      2191      2189      2192      2195
      2192      2195      2198      2199      2192      2195      2198      2200
      2192      2195      2198      2201      2193      2192      2195      2196
      2193      2192      2195      2197      2193      2192      2195      2198
      2194      2192      2195      2196      2194      2192      2195      2197
      2194      2192      2195      2198      2195      2198      2201      2202
      2195      2198      2201      2203      2195      2198      2201      2204
      2196      2195      2198      2199      2196      2195      2198      2200
      2196      2195      2198      2201      2197      2195      2198      2199
      2197      2195      2198      2200      2197      2195      2198      2201
      2198      2201      2204      2205      2198      2201      2204      2206
      2198      2201      2204      2207      2199      2198      2201      2202
      2199      2198      2201      2203      2199      2198      2201      2204
      2200      2198      2201      2202      2200      2198      2201      2203
      2200      2198      2201      2204      2201      2204      2207      2208
      2201      2204      2207      2209      2201      2204      2207      2210
      2202      2201      2204      2205      2202      2201      2204      2206
      2202      2201      2204      2207      2203      2201      2204      2205
      2203      2201      2204      2206      2203      2201      2204      2207
      2204      2207      2210      2211      2204      2207      2210      2212
      2204      2207      2210      2213      2205      2204      2207      2208
      2205      2204      2207      2209      2205      2204      2207      2210
      2206      2204      2207      2208      2206      2204      2207      2209
      2206      2204      2207      2210      2207      2210      2213      2214
      2207      2210      2213      2215      2207      2210      2213      2216
      2208      2207      2210      2211      2208      2207      2210      2212
      2208      2207      2210      2213      2209      2207      2210      2211
      2209      2207      2210      2212      2209      2207      2210      2213
      2210      2213      2216      2217      2210      2213      2216      2218
      2210      2213      2216      2219      2211      2210      2213      2214
      2211      2210      2213      2215      2211      2210      2213      2216
      2212      2210      2213      2214      2212      2210      2213      2215
      2212      2210      2213      2216      2213      2216      2219      2220
      2213      2216      2219      2221      2213      2216      2219      2222
      2214      2213      2216      2217      2214      2213      2216      2218
      2214      2213      2216      2219      2215      2213      2216      2217
      2215      2213      2216      2218      2215      2213      2216      2219
      2216      2219      2222      2223      2216      2219      2222      2224
      2216      2219      2222      2225      2217      2216      2219      2220
      2217      2216      2219      2221      2217      2216      2219      2222
      2218      2216      2219      2220      2218      2216      2219      2221
      2218      2216      2219      2222      2219      2222      2225      2226
      2219      2222      2225      2227      2219      2222      2225      2228
      2220      2219      2222      2223      2220      2219      2222      2224
      2220      2219      2222      2225      2221      2219      2222      2223
      2221      2219      2222      2224      2221      2219      2222      2225
      2223      2222      2225      2226      2223      2222      2225      2227
      2223      2222      2225      2228      2224      2222      2225      2226
      2224      2222      2225      2227      2224      2222      2225      2228
      2229      2230      2245      2246      2229      2230      2245      2247
      2229      2230      2245      2251      2230      2229      2233      2234
      2230      2229      2233      2235      2230      2229      2233      2236
      2230      2229      2237      2238      2230      2229      2237      2239
      2230      2229      2237      2240      2230      2229      2241      2242
      2230      2229      2241      2243      2230      2229      2241      2244
      2230      2245      2251      2248      2231      2230      2229      2233
      2231      2230      2229      2237      2231      2230      2229      2241
      2231      2230      2245      2246      2231      2230      2245      2247
      2231      2230      2245      2251      2232      2230      2229      2233
      2232      2230      2229      2237      2232      2230      2229      2241
      2232      2230      2245      2246      2232      2230      2245      2247
      2232      2230      2245      2251      2233      2229      2230      2245
      2233      2229      2237      2238      2233      2229      2237      2239
      2233      2229      2237      2240      2233      2229      2241      2242
      2233      2229      2241      2243      2233      2229      2241      2244
      2234      2233      2229      2237      2234      2233      2229      2241
      2235      2233      2229      2237      2235      2233      2229      2241
      2236      2233      2229      2237      2236      2233      2229      2241
      2237      2229      2230      2245      2237      2229      2241      2242
      2237      2229      2241      2243      2237      2229      2241      2244
      2238      2237      2229      2241      2239      2237      2229      2241
      2240      2237      2229      2241      2241      2229      2230      2245
      2245      2251      2248      2249      2245      2251      2248      2250
      2245      2251      2248      2252      2246      2245      2251      2248
      2247      2245      2251      2248      2248      2252      2253      2254
      2248      2252      2253      2255      2248      2252      2253      2256
      2249      2248      2252      2253      2250      2248      2252      2253
      2251      2248      2252      2253      2252      2253      2256      2257
      2252      2253      2256      2258      2252      2253      2256      2264
      2253      2256      2258      2259      2253      2256      2264      2265
      2253      2256      2264      2266      2253      2256      2264      2267
      2254      2253      2256      2257      2254      2253      2256      2258
      2254      2253      2256      2264      2255      2253      2256      2257
      2255      2253      2256      2258      2255      2253      2256      2264
      2256      2258      2259      2260      2256      2258      2259      2261
      2256      2264      2267      2268      2257      2256      2258      2259
      2257      2256      2264      2265      2257      2256      2264      2266
      2257      2256      2264      2267      2258      2256      2264      2265
      2258      2256      2264      2266      2258      2256      2264      2267
      2258      2259      2261      2262      2258      2259      2261      2263
      2258      2259      2261      2273      2259      2258      2256      2264
      2259      2261      2273      2274      2259      2261      2273      2275
      2259      2261      2273      2276      2260      2259      2261      2262
      2260      2259      2261      2263      2260      2259      2261      2273
      2261      2273      2276      2277      2261      2273      2276      2278
      2261      2273      2276      2279      2262      2261      2273      2274
      2262      2261      2273      2275      2262      2261      2273      2276
      2263      2261      2273      2274      2263      2261      2273      2275
      2263      2261      2273      2276      2264      2267      2268      2269
      2264      2267      2268      2270      2265      2264      2267      2268
      2266      2264      2267      2268      2267      2268      2270      2271
      2267      2268      2270      2272      2267      2268      2270      2320
      2268      2270      2320      2321      2268      2270      2320      2322
      2268      2270      2320      2323      2269      2268      2270      2271
      2269      2268      2270      2272      2269      2268      2270      2320
      2270      2320      2323      2324      2270      2320      2323      2325
      2270      2320      2323      2326      2271      2270      2320      2321
      2271      2270      2320      2322      2271      2270      2320      2323
      2272      2270      2320      2321      2272      2270      2320      2322
      2272      2270      2320      2323      2273      2276      2279      2280
      2273      2276      2279      2281      2273      2276      2279      2282
      2274      2273      2276      2277      2274      2273      2276      2278
      2274      2273      2276      2279      2275      2273      2276      2277
      2275      2273      2276      2278      2275      2273      2276      2279
      2276      2279      2282      2283      2276      2279      2282      2284
      2276      2279      2282      2285      2277      2276      2279      2280
      2277      2276      2279      2281      2277      2276      2279      2282
      2278      2276      2279      2280      2278      2276      2279      2281
      2278      2276      2279      2282      2279      2282      2285      2286
      2279      2282      2285      2287      2279      2282      2285      2288
      2280      2279      2282      2283      2280      2279      2282      2284
      2280      2279      2282      2285      2281      2279      2282      2283
      2281      2279      2282      2284      2281      2279      2282      2285
      2282      2285      2288      2289      2282      2285      2288      2290
      2282      2285      2288      2291      2283      2282      2285      2286
      2283      2282      2285      2287      2283      2282      2285      2288
      2284      2282      2285      2286      2284      2282      2285      2287
      2284      2282      2285      2288      2285      2288      2291      2292
      2285      2288      2291      2293      2286      2285      2288      2289
      2286      2285      2288      2290      2286      2285      2288      2291
      2287      2285      2288      2289      2287      2285      2288      2290
      2287      2285      2288      2291      2288      2291      2293      2294
      2288      2291      2293      2295      2289      2288      2291      2292
      2289      2288      2291      2293      2290      2288      2291      2292
      2290      2288      2291      2293      2291      2293      2295      2296
      2291      2293      2295      2297      2291      2293      2295      2298
      2292      2291      2293      2294      2292      2291      2293      2295
      2293      2295      2298      2299      2293      2295      2298      2300
      2293      2295      2298      2301      2294      2293      2295      2296
      2294      2293      2295      2297      2294      2293      2295      2298
      2295      2298      2301      2302      2295      2298      2301      2303
      2295      2298      2301      2304      2296      2295      2298      2299
      2296      2295      2298      2300      2296      2295      2298      2301
      2297      2295      2298      2299      2297      2295      2298      2300
      2297      2295      2298      2301      2298      2301      2304      2305
      2298      2301      2304      2306      2298      2301      2304      2307
      2299      2298      2301      2302      2299      2298      2301      2303
      2299      2298      2301      2304      2300      2298      2301      2302
      2300      2298      2301      2303      2300      2298      2301      2304
      2301      2304      2307      2308      2301      2304      2307      2309
      2301      2304      2307      2310      2302      2301      2304      2305
      2302      2301      2304      2306      2302      2301      2304      2307
      2303      2301      2304      2305      2303      2301      2304      2306
      2303      2301      2304      2307      2304      2307      2310      2311
      2304      2307      2310      2312      2304      2307      2310      2313
      2305      2304      2307      2308      2305      2304      2307      2309
      2305      2304      2307      2310      2306      2304      2307      2308
      2306      2304      2307      2309      2306      2304      2307      2310
      2307      2310      2313      2314      2307      2310      2313      2315
      2307      2310      2313      2316      2308      2307      2310      2311
      2308      2307      2310      2312      2308      2307      2310      2313
      2309      2307      2310      2311      2309      2307      2310      2312
      2309      2307      2310      2313      2310      2313      2316      2317
      2310      2313      2316      2318      2310      2313      2316      2319
      2311      2310      2313      2314      2311      2310      2313      2315
      2311      2310      2313      2316      2312      2310      2313      2314
      2312      2310      2313      2315      2312      2310      2313      2316
      2314      2313      2316      2317      2314      2313      2316      2318
      2314      2313      2316      2319      2315      2313      2316      2317
      2315      2313      2316      2318      2315      2313      2316      2319
      2320      2323      2326      2327      2320      2323      2326      2328
      2320      2323      2326      2329      2321      2320      2323      2324
      2321      2320      2323      2325      2321      2320      2323      2326
      2322      2320      2323      2324      2322      2320      2323      2325
      2322      2320      2323      2326      2323      2326      2329      2330
      2323      2326      2329      2331      2323      2326      2329      2332
      2324      2323      2326      2327      2324      2323      2326      2328
      2324      2323      2326      2329      2325      2323      2326      2327
      2325      2323      2326      2328      2325      2323      2326      2329
      2326      2329      2332      2333      2326      2329      2332      2334
      2326      2329      2332      2335      2327      2326      2329      2330
      2327      2326      2329      2331      2327      2326      2329      2332
      2328      2326      2329      2330      2328      2326      2329      2331
      2328      2326      2329      2332      2329      2332      2335      2336
      2329      2332      2335      2337      2329      2332      2335      2338
      2330      2329      2332      2333      2330      2329      2332      2334
      2330      2329      2332      2335      2331      2329      2332      2333
      2331      2329      2332      2334      2331      2329      2332      2335
      2332      2335      2338      2339      2332      2335      2338      2340
      2332      2335      2338      2341      2333      2332      2335      2336
      2333      2332      2335      2337      2333      2332      2335      2338
      2334      2332      2335      2336      2334      2332      2335      2337
      2334      2332      2335      2338      2335      2338      2341      2342
      2335      2338      2341      2343      2335      2338      2341      2344
      2336      2335      2338      2339      2336      2335      2338      2340
      2336      2335      2338      2341      2337      2335      2338      2339
      2337      2335      2338      2340      2337      2335      2338      2341
      2338      2341      2344      2345      2338      2341      2344      2346
      2338      2341      2344      2347      2339      2338      2341      2342
      2339      2338      2341      2343      2339      2338      2341      2344
      2340      2338      2341      2342      2340      2338      2341      2343
      2340      2338      2341      2344      2341      2344      2347      2348
      2341      2344      2347      2349      2341      2344      2347      2350
      2342      2341      2344      2345      2342      2341      2344      2346
      2342      2341      2344      2347      2343      2341      2344      2345
      2343      2341      2344      2346      2343      2341      2344      2347
      2344      2347      2350      2351      2344      2347      2350      2352
      2344      2347      2350      2353      2345      2344      2347      2348
      2345      2344      2347      2349      2345      2344      2347      2350
      2346      2344      2347      2348      2346      2344      2347      2349
      2346      2344      2347      2350      2347      2350      2353      2354
      2347      2350      2353      2355      2347      2350      2353      2356
      2348      2347      2350      2351      2348      2347      2350      2352
      2348      2347      2350      2353      2349      2347      2350      2351
      2349      2347      2350      2352      2349      2347      2350      2353
      2350      2353      2356      2357      2350      2353      2356      2358
      2350      2353      2356      2359      2351      2350      2353      2354
      2351      2350      2353      2355      2351      2350      2353      2356
      2352      2350      2353      2354      2352      2350      2353      2355
      2352      2350      2353      2356      2353      2356      2359      2360
      2353      2356      2359      2361      2353      2356      2359      2362
      2354      2353      2356      2357      2354      2353      2356      2358
      2354      2353      2356      2359      2355      2353      2356      2357
      2355      2353      2356      2358      2355      2353      2356      2359
      2357      2356      2359      2360      2357      2356      2359      2361
      2357      2356      2359      2362      2358      2356      2359      2360
      2358      2356      2359      2361      2358      2356      2359      2362
      2363      2364      2379      2380      2363      2364      2379      2381
      2363      2364      2379      2385      2364      2363      2367      2368
      2364      2363      2367      2369      2364      2363      2367      2370
      2364      2363      2371      2372      2364      2363      2371      2373
      2364      2363      2371      2374      2364      2363      2375      2376
      2364      2363      2375      2377      2364      2363      2375      2378
      2364      2379      2385      2382      2365      2364      2363      2367
      2365      2364      2363      2371      2365      2364      2363      2375
      2365      2364      2379      2380      2365      2364      2379      2381
      2365      2364      2379      2385      2366      2364      2363      2367
      2366      2364      2363      2371      2366      2364      2363      2375
      2366      2364      2379      2380      2366      2364      2379      2381
      2366      2364      2379      2385      2367      2363      2364      2379
      2367      2363      2371      2372      2367      2363      2371      2373
      2367      2363      2371      2374      2367      2363      2375      2376
      2367      2363      2375      2377      2367      2363      2375      2378
      2368      2367      2363      2371      2368      2367      2363      2375
      2369      2367      2363      2371      2369      2367      2363      2375
      2370      2367      2363      2371      2370      2367      2363      2375
      2371      2363      2364      2379      2371      2363      2375      2376
      2371      2363      2375      2377      2371      2363      2375      2378
      2372      2371      2363      2375      2373      2371      2363      2375
      2374      2371      2363      2375      2375      2363      2364      2379
      2379      2385      2382      2383      2379      2385      2382      2384
      2379      2385      2382      2386      2380      2379      2385      2382
      2381      2379      2385      2382      2382      2386      2387      2388
      2382      2386      2387      2389      2382      2386      2387      2390
      2383      2382      2386      2387      2384      2382      2386      2387
      2385      2382      2386      2387      2386      2387      2390      2391
      2386      2387      2390      2392      2386      2387      2390      2398
      2387      2390      2392      2393      2387      2390      2398      2399
      2387      2390      2398      2400      2387      2390      2398      2401
      2388      2387      2390      2391      2388      2387      2390      2392
      2388      2387      2390      2398      2389      2387      2390      2391
      2389      2387      2390      2392      2389      2387      2390      2398
      2390      2392      2393      2394      2390      2392      2393      2395
      2390      2398      2401      2402      2391      2390      2392      2393
      2391      2390      2398      2399      2391      2390      2398      2400
      2391      2390      2398      2401      2392      2390      2398      2399
      2392      2390      2398      2400      2392      2390      2398      2401
      2392      2393      2395      2396      2392      2393      2395      2397
      2392      2393      2395      2407      2393      2392      2390      2398
      2393      2395      2407      2408      2393      2395      2407      2409
      2393      2395      2407      2410      2394      2393      2395      2396
      2394      2393      2395      2397      2394      2393      2395      2407
      2395      2407      2410      2411      2395      2407      2410      2412
      2395      2407      2410      2413      2396      2395      2407      2408
      2396      2395      2407      2409      2396      2395      2407      2410
      2397      2395      2407      2408      2397      2395      2407      2409
      2397      2395      2407      2410      2398      2401      2402      2403
      2398      2401      2402      2404      2399      2398      2401      2402
      2400      2398      2401      2402      2401      2402      2404      2405
      2401      2402      2404      2406      2401      2402      2404      2454
      2402      2404      2454      2455      2402      2404      2454      2456
      2402      2404      2454      2457      2403      2402      2404      2405
      2403      2402      2404      2406      2403      2402      2404      2454
      2404      2454      2457      2458      2404      2454      2457      2459
      2404      2454      2457      2460      2405      2404      2454      2455
      2405      2404      2454      2456      2405      2404      2454      2457
      2406      2404      2454      2455      2406      2404      2454      2456
      2406      2404      2454      2457      2407      2410      2413      2414
      2407      2410      2413      2415      2407      2410      2413      2416
      2408      2407      2410      2411      2408      2407      2410      2412
      2408      2407      2410      2413      2409      2407      2410      2411
      2409      2407      2410      2412      2409      2407      2410      2413
      2410      2413      2416      2417      2410      2413      2416      2418
      2410      2413      2416      2419      2411      2410      2413      2414
      2411      2410      2413      2415      2411      2410      2413      2416
      2412      2410      2413      2414      2412      2410      2413      2415
      2412      2410      2413      2416      2413      2416      2419      2420
      2413      2416      2419      2421      2413      2416      2419      2422
      2414      2413      2416      2417      2414      2413      2416      2418
      2414      2413      2416      2419      2415      2413      2416      2417
      2415      2413      2416      2418      2415      2413      2416      2419
      2416      2419      2422      2423      2416      2419      2422      2424
      2416      2419      2422      2425      2417      2416      2419      2420
      2417      2416      2419      2421      2417      2416      2419      2422
      2418      2416      2419      2420      2418      2416      2419      2421
      2418      2416      2419      2422      2419      2422      2425      2426
      2419      2422      2425      2427      2420      2419      2422      2423
      2420      2419      2422      2424      2420      2419      2422      2425
      2421      2419      2422      2423      2421      2419      2422      2424
      2421      2419      2422      2425      2422      2425      2427      2428
      2422      2425      2427      2429      2423      2422      2425      2426
      2423      2422      2425      2427      2424      2422      2425      2426
      2424      2422      2425      2427      2425      2427      2429      2430
      2425      2427      2429      2431      2425      2427      2429      2432
      2426      2425      2427      2428      2426      2425      2427      2429
      2427      2429      2432      2433      2427      2429      2432      2434
      2427      2429      2432      2435      2428      2427      2429      2430
      2428      2427      2429      2431      2428      2427      2429      2432
      2429      2432      2435      2436      2429      2432      2435      2437
      2429      2432      2435      2438      2430      2429      2432      2433
      2430      2429      2432      2434      2430      2429      2432      2435
      2431      2429      2432      2433      2431      2429      2432      2434
      2431      2429      2432      2435      2432      2435      2438      2439
      2432      2435      2438      2440      2432      2435      2438      2441
      2433      2432      2435      2436      2433      2432      2435      2437
      2433      2432      2435      2438      2434      2432      2435      2436
      2434      2432      2435      2437      2434      2432      2435      2438
      2435      2438      2441      2442      2435      2438      2441      2443
      2435      2438      2441      2444      2436      2435      2438      2439
      2436      2435      2438      2440      2436      2435      2438      2441
      2437      2435      2438      2439      2437      2435      2438      2440
      2437      2435      2438      2441      2438      2441      2444      2445
      2438      2441      2444      2446      2438      2441      2444      2447
      2439      2438      2441      2442      2439      2438      2441      2443
      2439      2438      2441      2444      2440      2438      2441      2442
      2440      2438      2441      2443      2440      2438      2441      2444
      2441      2444      2447      2448      2441      2444      2447      2449
      2441      2444      2447      2450      2442      2441      2444      2445
      2442      2441      2444      2446      2442      2441      2444      2447
      2443      2441      2444      2445      2443      2441      2444      2446
      2443      2441      2444      2447      2444      2447      2450      2451
      2444      2447      2450      2452      2444      2447      2450      2453
      2445      2444      2447      2448      2445      2444      2447      2449
      2445      2444      2447      2450      2446      2444      2447      2448
      2446      2444      2447      2449      2446      2444      2447      2450
      2448      2447      2450      2451      2448      2447      2450      2452
      2448      2447      2450      2453      2449      2447      2450      2451
      2449      2447      2450      2452      2449      2447      2450      2453
      2454      2457      2460      2461      2454      2457      2460      2462
      2454      2457      2460      2463      2455      2454      2457      2458
      2455      2454      2457      2459      2455      2454      2457      2460
      2456      2454      2457      2458      2456      2454      2457      2459
      2456      2454      2457      2460      2457      2460      2463      2464
      2457      2460      2463      2465      2457      2460      2463      2466
      2458      2457      2460      2461      2458      2457      2460      2462
      2458      2457      2460      2463      2459      2457      2460      2461
      2459      2457      2460      2462      2459      2457      2460      2463
      2460      2463      2466      2467      2460      2463      2466      2468
      2460      2463      2466      2469      2461      2460      2463      2464
      2461      2460      2463      2465      2461      2460      2463      2466
      2462      2460      2463      2464      2462      2460      2463      2465
      2462      2460      2463      2466      2463      2466      2469      2470
      2463      2466      2469      2471      2463      2466      2469      2472
      2464      2463      2466      2467      2464      2463      2466      2468
      2464      2463      2466      2469      2465      2463      2466      2467
      2465      2463      2466      2468      2465      2463      2466      2469
      2466      2469      2472      2473      2466      2469      2472      2474
      2466      2469      2472      2475      2467      2466      2469      2470
      2467      2466      2469      2471      2467      2466      2469      2472
      2468      2466      2469      2470      2468      2466      2469      2471
      2468      2466      2469      2472      2469      2472      2475      2476
      2469      2472      2475      2477      2469      2472      2475      2478
      2470      2469      2472      2473      2470      2469      2472      2474
      2470      2469      2472      2475      2471      2469      2472      2473
      2471      2469      2472      2474      2471      2469      2472      2475
      2472      2475      2478      2479      2472      2475      2478      2480
      2472      2475      2478      2481      2473      2472      2475      2476
      2473      2472      2475      2477      2473      2472      2475      2478
      2474      2472      2475      2476      2474      2472      2475      2477
      2474      2472      2475      2478      2475      2478      2481      2482
      2475      2478      2481      2483      2475      2478      2481      2484
      2476      2475      2478      2479      2476      2475      2478      2480
      2476      2475      2478      2481      2477      2475      2478      2479
      2477      2475      2478      2480      2477      2475      2478      2481
      2478      2481      2484      2485      2478      2481      2484      2486
      2478      2481      2484      2487      2479      2478      2481      2482
      2479      2478      2481      2483      2479      2478      2481      2484
      2480      2478      2481      2482      2480      2478      2481      2483
      2480      2478      2481      2484      2481      2484      2487      2488
      2481      2484      2487      2489      2481      2484      2487      2490
      2482      2481      2484      2485      2482      2481      2484      2486
      2482      2481      2484      2487      2483      2481      2484      2485
      2483      2481      2484      2486      2483      2481      2484      2487
      2484      2487      2490      2491      2484      2487      2490      2492
      2484      2487      2490      2493      2485      2484      2487      2488
      2485      2484      2487      2489      2485      2484      2487      2490
      2486      2484      2487      2488      2486      2484      2487      2489
      2486      2484      2487      2490      2487      2490      2493      2494
      2487      2490      2493      2495      2487      2490      2493      2496
      2488      2487      2490      2491      2488      2487      2490      2492
      2488      2487      2490      2493      2489      2487      2490      2491
      2489      2487      2490      2492      2489      2487      2490      2493
      2491      2490      2493      2494      2491      2490      2493      2495
      2491      2490      2493      2496      2492      2490      2493      2494
      2492      2490      2493      2495      2492      2490      2493      2496
      2497      2498      2513      2514      2497      2498      2513      2515
      2497      2498      2513      2519      2498      2497      2501      2502
      2498      2497      2501      2503      2498      2497      2501      2504
      2498      2497      2505      2506      2498      2497      2505      2507
      2498      2497      2505      2508      2498      2497      2509      2510
      2498      2497      2509      2511      2498      2497      2509      2512
      2498      2513      2519      2516      2499      2498      2497      2501
      2499      2498      2497      2505      2499      2498      2497      2509
      2499      2498      2513      2514      2499      2498      2513      2515
      2499      2498      2513      2519      2500      2498      2497      2501
      2500      2498      2497      2505      2500      2498      2497      2509
      2500      2498      2513      2514      2500      2498      2513      2515
      2500      2498      2513      2519      2501      2497      2498      2513
      2501      2497      2505      2506      2501      2497      2505      2507
      2501      2497      2505      2508      2501      2497      2509      2510
      2501      2497      2509      2511      2501      2497      2509      2512
      2502      2501      2497      2505      2502      2501      2497      2509
      2503      2501      2497      2505      2503      2501      2497      2509
      2504      2501      2497      2505      2504      2501      2497      2509
      2505      2497      2498      2513      2505      2497      2509      2510
      2505      2497      2509      2511      2505      2497      2509      2512
      2506      2505      2497      2509      2507      2505      2497      2509
      2508      2505      2497      2509      2509      2497      2498      2513
      2513      2519      2516      2517      2513      2519      2516      2518
      2513      2519      2516      2520      2514      2513      2519      2516
      2515      2513      2519      2516      2516      2520      2521      2522
      2516      2520      2521      2523      2516      2520      2521      2524
      2517      2516      2520      2521      2518      2516      2520      2521
      2519      2516      2520      2521      2520      2521      2524      2525
      2520      2521      2524      2526      2520      2521      2524      2532
      2521      2524      2526      2527      2521      2524      2532      2533
      2521      2524      2532      2534      2521      2524      2532      2535
      2522      2521      2524      2525      2522      2521      2524      2526
      2522      2521      2524      2532      2523      2521      2524      2525
      2523      2521      2524      2526      2523      2521      2524      2532
      2524      2526      2527      2528      2524      2526      2527      2529
      2524      2532      2535      2536      2525      2524      2526      2527
      2525      2524      2532      2533      2525      2524      2532      2534
      2525      2524      2532      2535      2526      2524      2532      2533
      2526      2524      2532      2534      2526      2524      2532      2535
      2526      2527      2529      2530      2526      2527      2529      2531
      2526      2527      2529      2541      2527      2526      2524      2532
      2527      2529      2541      2542      2527      2529      2541      2543
      2527      2529      2541      2544      2528      2527      2529      2530
      2528      2527      2529      2531      2528      2527      2529      2541
      2529      2541      2544      2545      2529      2541      2544      2546
      2529      2541      2544      2547      2530      2529      2541      2542
      2530      2529      2541      2543      2530      2529      2541      2544
      2531      2529      2541      2542      2531      2529      2541      2543
      2531      2529      2541      2544      2532      2535      2536      2537
      2532      2535      2536      2538      2533      2532      2535      2536
      2534      2532      2535      2536      2535      2536      2538      2539
      2535      2536      2538      2540      2535      2536      2538      2588
      2536      2538      2588      2589      2536      2538      2588      2590
      2536      2538      2588      2591      2537      2536      2538      2539
      2537      2536      2538      2540      2537      2536      2538      2588
      2538      2588      2591      2592      2538      2588      2591      2593
      2538      2588      2591      2594      2539      2538      2588      2589
      2539      2538      2588      2590      2539      2538      2588      2591
      2540      2538      2588      2589      2540      2538      2588      2590
      2540      2538      2588      2591      2541      2544      2547      2548
      2541      2544      2547      2549      2541      2544      2547      2550
      2542      2541      2544      2545      2542      2541      2544      2546
      2542      2541      2544      2547      2543      2541      2544      2545
      2543      2541      2544      2546      2543      2541      2544      2547
      2544      2547      2550      2551      2544      2547      2550      2552
      2544      2547      2550      2553      2545      2544      2547      2548
      2545      2544      2547      2549      2545      2544      2547      2550
      2546      2544      2547      2548      2546      2544      2547      2549
      2546      2544      2547      2550      2547      2550      2553      2554
      2547      2550      2553      2555      2547      2550      2553      2556
      2548      2547      2550      2551      2548      2547      2550      2552
      2548      2547      2550      2553      2549      2547      2550      2551
      2549      2547      2550      2552      2549      2547      2550      2553
      2550      2553      2556      2557      2550      2553      2556      2558
      2550      2553      2556      2559      2551      2550      2553      2554
      2551      2550      2553      2555      2551      2550      2553      2556
      2552      2550      2553      2554      2552      2550      2553      2555
      2552      2550      2553      2556      2553      2556      2559      2560
      2553      2556      2559      2561      2554      2553      2556      2557
      2554      2553      2556      2558      2554      2553      2556      2559
      2555      2553      2556      2557      2555      2553      2556      2558
      2555      2553      2556      2559      2556      2559      2561      2562
      2556      2559      2561      2563      2557      2556      2559      2560
      2557      2556      2559      2561      2558      2556      2559      2560
      2558      2556      2559      2561      2559      2561      2563      2564
      2559      2561      2563      2565      2559      2561      2563      2566
      2560      2559      2561      2562      2560      2559      2561      2563
      2561      2563      2566      2567      2561      2563      2566      2568
      2561      2563      2566      2569      2562      2561      2563      2564
      2562      2561      2563      2565      2562      2561      2563      2566
      2563      2566      2569      2570      2563      2566      2569      2571
      2563      2566      2569      2572      2564      2563      2566      2567
      2564      2563      2566      2568      2564      2563      2566      2569
      2565      2563      2566      2567      2565      2563      2566      2568
      2565      2563      2566      2569      2566      2569      2572      2573
      2566      2569      2572      2574      2566      2569      2572      2575
      2567      2566      2569      2570      2567      2566      2569      2571
      2567      2566      2569      2572      2568      2566      2569      2570
      2568      2566      2569      2571      2568      2566      2569      2572
      2569      2572      2575      2576      2569      2572      2575      2577
      2569      2572      2575      2578      2570      2569      2572      2573
      2570      2569      2572      2574      2570      2569      2572      2575
      2571      2569      2572      2573      2571      2569      2572      2574
      2571      2569      2572      2575      2572      2575      2578      2579
      2572      2575      2578      2580      2572      2575      2578      2581
      2573      2572      2575      2576      2573      2572      2575      2577
      2573      2572      2575      2578      2574      2572      2575      2576
      2574      2572      2575      2577      2574      2572      2575      2578
      2575      2578      2581      2582      2575      2578      2581      2583
      2575      2578      2581      2584      2576      2575      2578      2579
      2576      2575      2578      2580      2576      2575      2578      2581
      2577      2575      2578      2579      2577      2575      2578      2580
      2577      2575      2578      2581      2578      2581      2584      2585
      2578      2581      2584      2586      2578      2581      2584      2587
      2579      2578      2581      2582      2579      2578      2581      2583
      2579      2578      2581      2584      2580      2578      2581      2582
      2580      2578      2581      2583      2580      2578      2581      2584
      2582      2581      2584      2585      2582      2581      2584      2586
      2582      2581      2584      2587      2583      2581      2584      2585
      2583      2581      2584      2586      2583      2581      2584      2587
      2588      2591      2594      2595      2588      2591      2594      2596
      2588      2591      2594      2597      2589      2588      2591      2592
      2589      2588      2591      2593      2589      2588      2591      2594
      2590      2588      2591      2592      2590      2588      2591      2593
      2590      2588      2591      2594      2591      2594      2597      2598
      2591      2594      2597      2599      2591      2594      2597      2600
      2592      2591      2594      2595      2592      2591      2594      2596
      2592      2591      2594      2597      2593      2591      2594      2595
      2593      2591      2594      2596      2593      2591      2594      2597
      2594      2597      2600      2601      2594      2597      2600      2602
      2594      2597      2600      2603      2595      2594      2597      2598
      2595      2594      2597      2599      2595      2594      2597      2600
      2596      2594      2597      2598      2596      2594      2597      2599
      2596      2594      2597      2600      2597      2600      2603      2604
      2597      2600      2603      2605      2597      2600      2603      2606
      2598      2597      2600      2601      2598      2597      2600      2602
      2598      2597      2600      2603      2599      2597      2600      2601
      2599      2597      2600      2602      2599      2597      2600      2603
      2600      2603      2606      2607      2600      2603      2606      2608
      2600      2603      2606      2609      2601      2600      2603      2604
      2601      2600      2603      2605      2601      2600      2603      2606
      2602      2600      2603      2604      2602      2600      2603      2605
      2602      2600      2603      2606      2603      2606      2609      2610
      2603      2606      2609      2611      2603      2606      2609      2612
      2604      2603      2606      2607      2604      2603      2606      2608
      2604      2603      2606      2609      2605      2603      2606      2607
      2605      2603      2606      2608      2605      2603      2606      2609
      2606      2609      2612      2613      2606      2609      2612      2614
      2606      2609      2612      2615      2607      2606      2609      2610
      2607      2606      2609      2611      2607      2606      2609      2612
      2608      2606      2609      2610      2608      2606      2609      2611
      2608      2606      2609      2612      2609      2612      2615      2616
      2609      2612      2615      2617      2609      2612      2615      2618
      2610      2609      2612      2613      2610      2609      2612      2614
      2610      2609      2612      2615      2611      2609      2612      2613
      2611      2609      2612      2614      2611      2609      2612      2615
      2612      2615      2618      2619      2612      2615      2618      2620
      2612      2615      2618      2621      2613      2612      2615      2616
      2613      2612      2615      2617      2613      2612      2615      2618
      2614      2612      2615      2616      2614      2612      2615      2617
      2614      2612      2615      2618      2615      2618      2621      2622
      2615      2618      2621      2623      2615      2618      2621      2624
      2616      2615      2618      2619      2616      2615      2618      2620
      2616      2615      2618      2621      2617      2615      2618      2619
      2617      2615      2618      2620      2617      2615      2618      2621
      2618      2621      2624      2625      2618      2621      2624      2626
      2618      2621      2624      2627      2619      2618      2621      2622
      2619      2618      2621      2623      2619      2618      2621      2624
      2620      2618      2621      2622      2620      2618      2621      2623
      2620      2618      2621      2624      2621      2624      2627      2628
      2621      2624      2627      2629      2621      2624      2627      2630
      2622      2621      2624      2625      2622      2621      2624      2626
      2622      2621      2624      2627      2623      2621      2624      2625
      2623      2621      2624      2626      2623      2621      2624      2627
      2625      2624      2627      2628      2625      2624      2627      2629
      2625      2624      2627      2630      2626      2624      2627      2628
      2626      2624      2627      2629      2626      2624      2627      2630
      2631      2632      2647      2648      2631      2632      2647      2649
      2631      2632      2647      2653      2632      2631      2635      2636
      2632      2631      2635      2637      2632      2631      2635      2638
      2632      2631      2639      2640      2632      2631      2639      2641
      2632      2631      2639      2642      2632      2631      2643      2644
      2632      2631      2643      2645      2632      2631      2643      2646
      2632      2647      2653      2650      2633      2632      2631      2635
      2633      2632      2631      2639      2633      2632      2631      2643
      2633      2632      2647      2648      2633      2632      2647      2649
      2633      2632      2647      2653      2634      2632      2631      2635
      2634      2632      2631      2639      2634      2632      2631      2643
      2634      2632      2647      2648      2634      2632      2647      2649
      2634      2632      2647      2653      2635      2631      2632      2647
      2635      2631      2639      2640      2635      2631      2639      2641
      2635      2631      2639      2642      2635      2631      2643      2644
      2635      2631      2643      2645      2635      2631      2643      2646
      2636      2635      2631      2639      2636      2635      2631      2643
      2637      2635      2631      2639      2637      2635      2631      2643
      2638      2635      2631      2639      2638      2635      2631      2643
      2639      2631      2632      2647      2639      2631      2643      2644
      2639      2631      2643      2645      2639      2631      2643      2646
      2640      2639      2631      2643      2641      2639      2631      2643
      2642      2639      2631      2643      2643      2631      2632      2647
      2647      2653      2650      2651      2647      2653      2650      2652
      2647      2653      2650      2654      2648      2647      2653      2650
      2649      2647      2653      2650      2650      2654      2655      2656
      2650      2654      2655      2657      2650      2654      2655      2658
      2651      2650      2654      2655      2652      2650      2654      2655
      2653      2650      2654      2655      2654      2655      2658      2659
      2654      2655      2658      2660      2654      2655      2658      2666
      2655      2658      2660      2661      2655      2658      2666      2667
      2655      2658      2666      2668      2655      2658      2666      2669
      2656      2655      2658      2659      2656      2655      2658      2660
      2656      2655      2658      2666      2657      2655      2658      2659
      2657      2655      2658      2660      2657      2655      2658      2666
      2658      2660      2661      2662      2658      2660      2661      2663
      2658      2666      2669      2670      2659      2658      2660      2661
      2659      2658      2666      2667      2659      2658      2666      2668
      2659      2658      2666      2669      2660      2658      2666      2667
      2660      2658      2666      2668      2660      2658      2666      2669
      2660      2661      2663      2664      2660      2661      2663      2665
      2660      2661      2663      2675      2661      2660      2658      2666
      2661      2663      2675      2676      2661      2663      2675      2677
      2661      2663      2675      2678      2662      2661      2663      2664
      2662      2661      2663      2665      2662      2661      2663      2675
      2663      2675      2678      2679      2663      2675      2678      2680
      2663      2675      2678      2681      2664      2663      2675      2676
      2664      2663      2675      2677      2664      2663      2675      2678
      2665      2663      2675      2676      2665      2663      2675      2677
      2665      2663      2675      2678      2666      2669      2670      2671
      2666      2669      2670      2672      2667      2666      2669      2670
      2668      2666      2669      2670      2669      2670      2672      2673
      2669      2670      2672      2674      2669      2670      2672      2722
      2670      2672      2722      2723      2670      2672      2722      2724
      2670      2672      2722      2725      2671      2670      2672      2673
      2671      2670      2672      2674      2671      2670      2672      2722
      2672      2722      2725      2726      2672      2722      2725      2727
      2672      2722      2725      2728      2673      2672      2722      2723
      2673      2672      2722      2724      2673      2672      2722      2725
      2674      2672      2722      2723      2674      2672      2722      2724
      2674      2672      2722      2725      2675      2678      2681      2682
      2675      2678      2681      2683      2675      2678      2681      2684
      2676      2675      2678      2679      2676      2675      2678      2680
      2676      2675      2678      2681      2677      2675      2678      2679
      2677      2675      2678      2680      2677      2675      2678      2681
      2678      2681      2684      2685      2678      2681      2684      2686
      2678      2681      2684      2687      2679      2678      2681      2682
      2679      2678      2681      2683      2679      2678      2681      2684
      2680      2678      2681      2682      2680      2678      2681      2683
      2680      2678      2681      2684      2681      2684      2687      2688
      2681      2684      2687      2689      2681      2684      2687      2690
      2682      2681      2684      2685      2682      2681      2684      2686
      2682      2681      2684      2687      2683      2681      2684      2685
      2683      2681      2684      2686      2683      2681      2684      2687
      2684      2687      2690      2691      2684      2687      2690      2692
      2684      2687      2690      2693      2685      2684      2687      2688
      2685      2684      2687      2689      2685      2684      2687      2690
      2686      2684      2687      2688      2686      2684      2687      2689
      2686      2684      2687      2690      2687      2690      2693      2694
      2687      2690      2693      2695      2688      2687      2690      2691
      2688      2687      2690      2692      2688      2687      2690      2693
      2689      2687      2690      2691      2689      2687      2690      2692
      2689      2687      2690      2693      2690      2693      2695      2696
      2690      2693      2695      2697      2691      2690      2693      2694
      2691      2690      2693      2695      2692      2690      2693      2694
      2692      2690      2693      2695      2693      2695      2697      2698
      2693      2695      2697      2699      2693      2695      2697      2700
      2694      2693      2695      2696      2694      2693      2695      2697
      2695      2697      2700      2701      2695      2697      2700      2702
      2695      2697      2700      2703      2696      2695      2697      2698
      2696      2695      2697      2699      2696      2695      2697      2700
      2697      2700      2703      2704      2697      2700      2703      2705
      2697      2700      2703      2706      2698      2697      2700      2701
      2698      2697      2700      2702      2698      2697      2700      2703
      2699      2697      2700      2701      2699      2697      2700      2702
      2699      2697      2700      2703      2700      2703      2706      2707
      2700      2703      2706      2708      2700      2703      2706      2709
      2701      2700      2703      2704      2701      2700      2703      2705
      2701      2700      2703      2706      2702      2700      2703      2704
      2702      2700      2703      2705      2702      2700      2703      2706
      2703      2706      2709      2710      2703      2706      2709      2711
      2703      2706      2709      2712      2704      2703      2706      2707
      2704      2703      2706      2708      2704      2703      2706      2709
      2705      2703      2706      2707      2705      2703      2706      2708
      2705      2703      2706      2709      2706      2709      2712      2713
      2706      2709      2712      2714      2706      2709      2712      2715
      2707      2706      2709      2710      2707      2706      2709      2711
      2707      2706      2709      2712      2708      2706      2709      2710
      2708      2706      2709      2711      2708      2706      2709      2712
      2709      2712      2715      2716      2709      2712      2715      2717
      2709      2712      2715      2718      2710      2709      2712      2713
      2710      2709      2712      2714      2710      2709      2712      2715
      2711      2709      2712      2713      2711      2709      2712      2714
      2711      2709      2712      2715      2712      2715      2718      2719
      2712      2715      2718      2720      2712      2715      2718      2721
      2713      2712      2715      2716      2713      2712      2715      2717
      2713      2712      2715      2718      2714      2712      2715      2716
      2714      2712      2715      2717      2714      2712      2715      2718
      2716      2715      2718      2719      2716      2715      2718      2720
      2716      2715      2718      2721      2717      2715      2718      2719
      2717      2715      2718      2720      2717      2715      2718      2721
      2722      2725      2728      2729      2722      2725      2728      2730
      2722      2725      2728      2731      2723      2722      2725      2726
      2723      2722      2725      2727      2723      2722      2725      2728
      2724      2722      2725      2726      2724      2722      2725      2727
      2724      2722      2725      2728      2725      2728      2731      2732
      2725      2728      2731      2733      2725      2728      2731      2734
      2726      2725      2728      2729      2726      2725      2728      2730
      2726      2725      2728      2731      2727      2725      2728      2729
      2727      2725      2728      2730      2727      2725      2728      2731
      2728      2731      2734      2735      2728      2731      2734      2736
      2728      2731      2734      2737      2729      2728      2731      2732
      2729      2728      2731      2733      2729      2728      2731      2734
      2730      2728      2731      2732      2730      2728      2731      2733
      2730      2728      2731      2734      2731      2734      2737      2738
      2731      2734      2737      2739      2731      2734      2737      2740
      2732      2731      2734      2735      2732      2731      2734      2736
      2732      2731      2734      2737      2733      2731      2734      2735
      2733      2731      2734      2736      2733      2731      2734      2737
      2734      2737      2740      2741      2734      2737      2740      2742
      2734      2737      2740      2743      2735      2734      2737      2738
      2735      2734      2737      2739      2735      2734      2737      2740
      2736      2734      2737      2738      2736      2734      2737      2739
      2736      2734      2737      2740      2737      2740      2743      2744
      2737      2740      2743      2745      2737      2740      2743      2746
      2738      2737      2740      2741      2738      2737      2740      2742
      2738      2737      2740      2743      2739      2737      2740      2741
      2739      2737      2740      2742      2739      2737      2740      2743
      2740      2743      2746      2747      2740      2743      2746      2748
      2740      2743      2746      2749      2741      2740      2743      2744
      2741      2740      2743      2745      2741      2740      2743      2746
      2742      2740      2743      2744      2742      2740      2743      2745
      2742      2740      2743      2746      2743      2746      2749      2750
      2743      2746      2749      2751      2743      2746      2749      2752
      2744      2743      2746      2747      2744      2743      2746      2748
      2744      2743      2746      2749      2745      2743      2746      2747
      2745      2743      2746      2748      2745      2743      2746      2749
      2746      2749      2752      2753      2746      2749      2752      2754
      2746      2749      2752      2755      2747      2746      2749      2750
      2747      2746      2749      2751      2747      2746      2749      2752
      2748      2746      2749      2750      2748      2746      2749      2751
      2748      2746      2749      2752      2749      2752      2755      2756
      2749      2752      2755      2757      2749      2752      2755      2758
      2750      2749      2752      2753      2750      2749      2752      2754
      2750      2749      2752      2755      2751      2749      2752      2753
      2751      2749      2752      2754      2751      2749      2752      2755
      2752      2755      2758      2759      2752      2755      2758      2760
      2752      2755      2758      2761      2753      2752      2755      2756
      2753      2752      2755      2757      2753      2752      2755      2758
      2754      2752      2755      2756      2754      2752      2755      2757
      2754      2752      2755      2758      2755      2758      2761      2762
      2755      2758      2761      2763      2755      2758      2761      2764
      2756      2755      2758      2759      2756      2755      2758      2760
      2756      2755      2758      2761      2757      2755      2758      2759
      2757      2755      2758      2760      2757      2755      2758      2761
      2759      2758      2761      2762      2759      2758      2761      2763
      2759      2758      2761      2764      2760      2758      2761      2762
      2760      2758      2761      2763      2760      2758      2761      2764
      2765      2766      2781      2782      2765      2766      2781      2783
      2765      2766      2781      2787      2766      2765      2769      2770
      2766      2765      2769      2771      2766      2765      2769      2772
      2766      2765      2773      2774      2766      2765      2773      2775
      2766      2765      2773      2776      2766      2765      2777      2778
      2766      2765      2777      2779      2766      2765      2777      2780
      2766      2781      2787      2784      2767      2766      2765      2769
      2767      2766      2765      2773      2767      2766      2765      2777
      2767      2766      2781      2782      2767      2766      2781      2783
      2767      2766      2781      2787      2768      2766      2765      2769
      2768      2766      2765      2773      2768      2766      2765      2777
      2768      2766      2781      2782      2768      2766      2781      2783
      2768      2766      2781      2787      2769      2765      2766      2781
      2769      2765      2773      2774      2769      2765      2773      2775
      2769      2765      2773      2776      2769      2765      2777      2778
      2769      2765      2777      2779      2769      2765      2777      2780
      2770      2769      2765      2773      2770      2769      2765      2777
      2771      2769      2765      2773      2771      2769      2765      2777
      2772      2769      2765      2773      2772      2769      2765      2777
      2773      2765      2766      2781      2773      2765      2777      2778
      2773      2765      2777      2779      2773      2765      2777      2780
      2774      2773      2765      2777      2775      2773      2765      2777
      2776      2773      2765      2777      2777      2765      2766      2781
      2781      2787      2784      2785      2781      2787      2784      2786
      2781      2787      2784      2788      2782      2781      2787      2784
      2783      2781      2787      2784      2784      2788      2789      2790
      2784      2788      2789      2791      2784      2788      2789      2792
      2785      2784      2788      2789      2786      2784      2788      2789
      2787      2784      2788      2789      2788      2789      2792      2793
      2788      2789      2792      2794      2788      2789      2792      2800
      2789      2792      2794      2795      2789      2792      2800      2801
      2789      2792      2800      2802      2789      2792      2800      2803
      2790      2789      2792      2793      2790      2789      2792      2794
      2790      2789      2792      2800      2791      2789      2792      2793
      2791      2789      2792      2794      2791      2789      2792      2800
      2792      2794      2795      2796      2792      2794      2795      2797
      2792      2800      2803      2804      2793      2792      2794      2795
      2793      2792      2800      2801      2793      2792      2800      2802
      2793      2792      2800      2803      2794      2792      2800      2801
      2794      2792      2800      2802      2794      2792      2800      2803
      2794      2795      2797      2798      2794      2795      2797      2799
      2794      2795      2797      2809      2795      2794      2792      2800
      2795      2797      2809      2810      2795      2797      2809      2811
      2795      2797      2809      2812      2796      2795      2797      2798
      2796      2795      2797      2799      2796      2795      2797      2809
      2797      2809      2812      2813      2797      2809      2812      2814
      2797      2809      2812      2815      2798      2797      2809      2810
      2798      2797      2809      2811      2798      2797      2809      2812
      2799      2797      2809      2810      2799      2797      2809      2811
      2799      2797      2809      2812      2800      2803      2804      2805
      2800      2803      2804      2806      2801      2800      2803      2804
      2802      2800      2803      2804      2803      2804      2806      2807
      2803      2804      2806      2808      2803      2804      2806      2856
      2804      2806      2856      2857      2804      2806      2856      2858
      2804      2806      2856      2859      2805      2804      2806      2807
      2805      2804      2806      2808      2805      2804      2806      2856
      2806      2856      2859      2860      2806      2856      2859      2861
      2806      2856      2859      2862      2807      2806      2856      2857
      2807      2806      2856      2858      2807      2806      2856      2859
      2808      2806      2856      2857      2808      2806      2856      2858
      2808      2806      2856      2859      2809      2812      2815      2816
      2809      2812      2815      2817      2809      2812      2815      2818
      2810      2809      2812      2813      2810      2809      2812      2814
      2810      2809      2812      2815      2811      2809      2812      2813
      2811      2809      2812      2814      2811      2809      2812      2815
      2812      2815      2818      2819      2812      2815      2818      2820
      2812      2815      2818      2821      2813      2812      2815      2816
      2813      2812      2815      2817      2813      2812      2815      2818
      2814      2812      2815      2816      2814      2812      2815      2817
      2814      2812      2815      2818      2815      2818      2821      2822
      2815      2818      2821      2823      2815      2818      2821      2824
      2816      2815      2818      2819      2816      2815      2818      2820
      2816      2815      2818      2821      2817      2815      2818      2819
      2817      2815      2818      2820      2817      2815      2818      2821
      2818      2821      2824      2825      2818      2821      2824      2826
      2818      2821      2824      2827      2819      2818      2821      2822
      2819      2818      2821      2823      2819      2818      2821      2824
      2820      2818      2821      2822      2820      2818      2821      2823
      2820      2818      2821      2824      2821      2824      2827      2828
      2821      2824      2827      2829      2822      2821      2824      2825
      2822      2821      2824      2826      2822      2821      2824      2827
      2823      2821      2824      2825      2823      2821      2824      2826
      2823      2821      2824      2827      2824      2827      2829      2830
      2824      2827      2829      2831      2825      2824      2827      2828
      2825      2824      2827      2829      2826      2824      2827      2828
      2826      2824      2827      2829      2827      2829      2831      2832
      2827      2829      2831      2833      2827      2829      2831      2834
      2828      2827      2829      2830      2828      2827      2829      2831
      2829      2831      2834      2835      2829      2831      2834      2836
      2829      2831      2834      2837      2830      2829      2831      2832
      2830      2829      2831      2833      2830      2829      2831      2834
      2831      2834      2837      2838      2831      2834      2837      2839
      2831      2834      2837      2840      2832      2831      2834      2835
      2832      2831      2834      2836      2832      2831      2834      2837
      2833      2831      2834      2835      2833      2831      2834      2836
      2833      2831      2834      2837      2834      2837      2840      2841
      2834      2837      2840      2842      2834      2837      2840      2843
      2835      2834      2837      2838      2835      2834      2837      2839
      2835      2834      2837      2840      2836      2834      2837      2838
      2836      2834      2837      2839      2836      2834      2837      2840
      2837      2840      2843      2844      2837      2840      2843      2845
      2837      2840      2843      2846      2838      2837      2840      2841
      2838      2837      2840      2842      2838      2837      2840      2843
      2839      2837      2840      2841      2839      2837      2840      2842
      2839      2837      2840      2843      2840      2843      2846      2847
      2840      2843      2846      2848      2840      2843      2846      2849
      2841      2840      2843      2844      2841      2840      2843      2845
      2841      2840      2843      2846      2842      2840      2843      2844
      2842      2840      2843      2845      2842      2840      2843      2846
      2843      2846      2849      2850      2843      2846      2849      2851
      2843      2846      2849      2852      2844      2843      2846      2847
      2844      2843      2846      2848      2844      2843      2846      2849
      2845      2843      2846      2847      2845      2843      2846      2848
      2845      2843      2846      2849      2846      2849      2852      2853
      2846      2849      2852      2854      2846      2849      2852      2855
      2847      2846      2849      2850      2847      2846      2849      2851
      2847      2846      2849      2852      2848      2846      2849      2850
      2848      2846      2849      2851      2848      2846      2849      2852
      2850      2849      2852      2853      2850      2849      2852      2854
      2850      2849      2852      2855      2851      2849      2852      2853
      2851      2849      2852      2854      2851      2849      2852      2855
      2856      2859      2862      2863      2856      2859      2862      2864
      2856      2859      2862      2865      2857      2856      2859      2860
      2857      2856      2859      2861      2857      2856      2859      2862
      2858      2856      2859      2860      2858      2856      2859      2861
      2858      2856      2859      2862      2859      2862      2865      2866
      2859      2862      2865      2867      2859      2862      2865      2868
      2860      2859      2862      2863      2860      2859      2862      2864
      2860      2859      2862      2865      2861      2859      2862      2863
      2861      2859      2862      2864      2861      2859      2862      2865
      2862      2865      2868      2869      2862      2865      2868      2870
      2862      2865      2868      2871      2863      2862      2865      2866
      2863      2862      2865      2867      2863      2862      2865      2868
      2864      2862      2865      2866      2864      2862      2865      2867
      2864      2862      2865      2868      2865      2868      2871      2872
      2865      2868      2871      2873      2865      2868      2871      2874
      2866      2865      2868      2869      2866      2865      2868      2870
      2866      2865      2868      2871      2867      2865      2868      2869
      2867      2865      2868      2870      2867      2865      2868      2871
      2868      2871      2874      2875      2868      2871      2874      2876
      2868      2871      2874      2877      2869      2868      2871      2872
      2869      2868      2871      2873      2869      2868      2871      2874
      2870      2868      2871      2872      2870      2868      2871      2873
      2870      2868      2871      2874      2871      2874      2877      2878
      2871      2874      2877      2879      2871      2874      2877      2880
      2872      2871      2874      2875      2872      2871      2874      2876
      2872      2871      2874      2877      2873      2871      2874      2875
      2873      2871      2874      2876      2873      2871      2874      2877
      2874      2877      2880      2881      2874      2877      2880      2882
      2874      2877      2880      2883      2875      2874      2877      2878
      2875      2874      2877      2879      2875      2874      2877      2880
      2876      2874      2877      2878      2876      2874      2877      2879
      2876      2874      2877      2880      2877      2880      2883      2884
      2877      2880      2883      2885      2877      2880      2883      2886
      2878      2877      2880      2881      2878      2877      2880      2882
      2878      2877      2880      2883      2879      2877      2880      2881
      2879      2877      2880      2882      2879      2877      2880      2883
      2880      2883      2886      2887      2880      2883      2886      2888
      2880      2883      2886      2889      2881      2880      2883      2884
      2881      2880      2883      2885      2881      2880      2883      2886
      2882      2880      2883      2884      2882      2880      2883      2885
      2882      2880      2883      2886      2883      2886      2889      2890
      2883      2886      2889      2891      2883      2886      2889      2892
      2884      2883      2886      2887      2884      2883      2886      2888
      2884      2883      2886      2889      2885      2883      2886      2887
      2885      2883      2886      2888      2885      2883      2886      2889
      2886      2889      2892      2893      2886      2889      2892      2894
      2886      2889      2892      2895      2887      2886      2889      2890
      2887      2886      2889      2891      2887      2886      2889      2892
      2888      2886      2889      2890      2888      2886      2889      2891
      2888      2886      2889      2892      2889      2892      2895      2896
      2889      2892      2895      2897      2889      2892      2895      2898
      2890      2889      2892      2893      2890      2889      2892      2894
      2890      2889      2892      2895      2891      2889      2892      2893
      2891      2889      2892      2894      2891      2889      2892      2895
      2893      2892      2895      2896      2893      2892      2895      2897
      2893      2892      2895      2898      2894      2892      2895      2896
      2894      2892      2895      2897      2894      2892      2895      2898
      2899      2900      2915      2916      2899      2900      2915      2917
      2899      2900      2915      2921      2900      2899      2903      2904
      2900      2899      2903      2905      2900      2899      2903      2906
      2900      2899      2907      2908      2900      2899      2907      2909
      2900      2899      2907      2910      2900      2899      2911      2912
      2900      2899      2911      2913      2900      2899      2911      2914
      2900      2915      2921      2918      2901      2900      2899      2903
      2901      2900      2899      2907      2901      2900      2899      2911
      2901      2900      2915      2916      2901      2900      2915      2917
      2901      2900      2915      2921      2902      2900      2899      2903
      2902      2900      2899      2907      2902      2900      2899      2911
      2902      2900      2915      2916      2902      2900      2915      2917
      2902      2900      2915      2921      2903      2899      2900      2915
      2903      2899      2907      2908      2903      2899      2907      2909
      2903      2899      2907      2910      2903      2899      2911      2912
      2903      2899      2911      2913      2903      2899      2911      2914
      2904      2903      2899      2907      2904      2903      2899      2911
      2905      2903      2899      2907      2905      2903      2899      2911
      2906      2903      2899      2907      2906      2903      2899      2911
      2907      2899      2900      2915      2907      2899      2911      2912
      2907      2899      2911      2913      2907      2899      2911      2914
      2908      2907      2899      2911      2909      2907      2899      2911
      2910      2907      2899      2911      2911      2899      2900      2915
      2915      2921      2918      2919      2915      2921      2918      2920
      2915      2921      2918      2922      2916      2915      2921      2918
      2917      2915      2921      2918      2918      2922      2923      2924
      2918      2922      2923      2925      2918      2922      2923      2926
      2919      2918      2922      2923      2920      2918      2922      2923
      2921      2918      2922      2923      2922      2923      2926      2927
      2922      2923      2926      2928      2922      2923      2926      2934
      2923      2926      2928      2929      2923      2926      2934      2935
      2923      2926      2934      2936      2923      2926      2934      2937
      2924      2923      2926      2927      2924      2923      2926      2928
      2924      2923      2926      2934      2925      2923      2926      2927
      2925      2923      2926      2928      2925      2923      2926      2934
      2926      2928      2929      2930      2926      2928      2929      2931
      2926      2934      2937      2938      2927      2926      2928      2929
      2927      2926      2934      2935      2927      2926      2934      2936
      2927      2926      2934      2937      2928      2926      2934      2935
      2928      2926      2934      2936      2928      2926      2934      2937
      2928      2929      2931      2932      2928      2929      2931      2933
      2928      2929      2931      2943      2929      2928      2926      2934
      2929      2931      2943      2944      2929      2931      2943      2945
      2929      2931      2943      2946      2930      2929      2931      2932
      2930      2929      2931      2933      2930      2929      2931      2943
      2931      2943      2946      2947      2931      2943      2946      2948
      2931      2943      2946      2949      2932      2931      2943      2944
      2932      2931      2943      2945      2932      2931      2943      2946
      2933      2931      2943      2944      2933      2931      2943      2945
      2933      2931      2943      2946      2934      2937      2938      2939
      2934      2937      2938      2940      2935      2934      2937      2938
      2936      2934      2937      2938      2937      2938      2940      2941
      2937      2938      2940      2942      2937      2938      2940      2990
      2938      2940      2990      2991      2938      2940      2990      2992
      2938      2940      2990      2993      2939      2938      2940      2941
      2939      2938      2940      2942      2939      2938      2940      2990
      2940      2990      2993      2994      2940      2990      2993      2995
      2940      2990      2993      2996      2941      2940      2990      2991
      2941      2940      2990      2992      2941      2940      2990      2993
      2942      2940      2990      2991      2942      2940      2990      2992
      2942      2940      2990      2993      2943      2946      2949      2950
      2943      2946      2949      2951      2943      2946      2949      2952
      2944      2943      2946      2947      2944      2943      2946      2948
      2944      2943      2946      2949      2945      2943      2946      2947
      2945      2943      2946      2948      2945      2943      2946      2949
      2946      2949      2952      2953      2946      2949      2952      2954
      2946      2949      2952      2955      2947      2946      2949      2950
      2947      2946      2949      2951      2947      2946      2949      2952
      2948      2946      2949      2950      2948      2946      2949      2951
      2948      2946      2949      2952      2949      2952      2955      2956
      2949      2952      2955      2957      2949      2952      2955      2958
      2950      2949      2952      2953      2950      2949      2952      2954
      2950      2949      2952      2955      2951      2949      2952      2953
      2951      2949      2952      2954      2951      2949      2952      2955
      2952      2955      2958      2959      2952      2955      2958      2960
      2952      2955      2958      2961      2953      2952      2955      2956
      2953      2952      2955      2957      2953      2952      2955      2958
      2954      2952      2955      2956      2954      2952      2955      2957
      2954      2952      2955      2958      2955      2958      2961      2962
      2955      2958      2961      2963      2956      2955      2958      2959
      2956      2955      2958      2960      2956      2955      2958      2961
      2957      2955      2958      2959      2957      2955      2958      2960
      2957      2955      2958      2961      2958      2961      2963      2964
      2958      2961      2963      2965      2959      2958      2961      2962
      2959      2958      2961      2963      2960      2958      2961      2962
      2960      2958      2961      2963      2961      2963      2965      2966
      2961      2963      2965      2967      2961      2963      2965      2968
      2962      2961      2963      2964      2962      2961      2963      2965
      2963      2965      2968      2969      2963      2965      2968      2970
      2963      2965      2968      2971      2964      2963      2965      2966
      2964      2963      2965      2967      2964      2963      2965      2968
      2965      2968      2971      2972      2965      2968      2971      2973
      2965      2968      2971      2974      2966      2965      2968      2969
      2966      2965      2968      2970      2966      2965      2968      2971
      2967      2965      2968      2969      2967      2965      2968      2970
      2967      2965      2968      2971      2968      2971      2974      2975
      2968      2971      2974      2976      2968      2971      2974      2977
      2969      2968      2971      2972      2969      2968      2971      2973
      2969      2968      2971      2974      2970      2968      2971      2972
      2970      2968      2971      2973      2970      2968      2971      2974
      2971      2974      2977      2978      2971      2974      2977      2979
      2971      2974      2977      2980      2972      2971      2974      2975
      2972      2971      2974      2976      2972      2971      2974      2977
      2973      2971      2974      2975      2973      2971      2974      2976
      2973      2971      2974      2977      2974      2977      2980      2981
      2974      2977      2980      2982      2974      2977      2980      2983
      2975      2974      2977      2978      2975      2974      2977      2979
      2975      2974      2977      2980      2976      2974      2977      2978
      2976      2974      2977      2979      2976      2974      2977      2980
      2977      2980      2983      2984      2977      2980      2983      2985
      2977      2980      2983      2986      2978      2977      2980      2981
      2978      2977      2980      2982      2978      2977      2980      2983
      2979      2977      2980      2981      2979      2977      2980      2982
      2979      2977      2980      2983      2980      2983      2986      2987
      2980      2983      2986      2988      2980      2983      2986      2989
      2981      2980      2983      2984      2981      2980      2983      2985
      2981      2980      2983      2986      2982      2980      2983      2984
      2982      2980      2983      2985      2982      2980      2983      2986
      2984      2983      2986      2987      2984      2983      2986      2988
      2984      2983      2986      2989      2985      2983      2986      2987
      2985      2983      2986      2988      2985      2983      2986      2989
      2990      2993      2996      2997      2990      2993      2996      2998
      2990      2993      2996      2999      2991      2990      2993      2994
      2991      2990      2993      2995      2991      2990      2993      2996
      2992      2990      2993      2994      2992      2990      2993      2995
      2992      2990      2993      2996      2993      2996      2999      3000
      2993      2996      2999      3001      2993      2996      2999      3002
      2994      2993      2996      2997      2994      2993      2996      2998
      2994      2993      2996      2999      2995      2993      2996      2997
      2995      2993      2996      2998      2995      2993      2996      2999
      2996      2999      3002      3003      2996      2999      3002      3004
      2996      2999      3002      3005      2997      2996      2999      3000
      2997      2996      2999      3001      2997      2996      2999      3002
      2998      2996      2999      3000      2998      2996      2999      3001
      2998      2996      2999      3002      2999      3002      3005      3006
      2999      3002      3005      3007      2999      3002      3005      3008
      3000      2999      3002      3003      3000      2999      3002      3004
      3000      2999      3002      3005      3001      2999      3002      3003
      3001      2999      3002      3004      3001      2999      3002      3005
      3002      3005      3008      3009      3002      3005      3008      3010
      3002      3005      3008      3011      3003      3002      3005      3006
      3003      3002      3005      3007      3003      3002      3005      3008
      3004      3002      3005      3006      3004      3002      3005      3007
      3004      3002      3005      3008      3005      3008      3011      3012
      3005      3008      3011      3013      3005      3008      3011      3014
      3006      3005      3008      3009      3006      3005      3008      3010
      3006      3005      3008      3011      3007      3005      3008      3009
      3007      3005      3008      3010      3007      3005      3008      3011
      3008      3011      3014      3015      3008      3011      3014      3016
      3008      3011      3014      3017      3009      3008      3011      3012
      3009      3008      3011      3013      3009      3008      3011      3014
      3010      3008      3011      3012      3010      3008      3011      3013
      3010      3008      3011      3014      3011      3014      3017      3018
      3011      3014      3017      3019      3011      3014      3017      3020
      3012      3011      3014      3015      3012      3011      3014      3016
      3012      3011      3014      3017      3013      3011      3014      3015
      3013      3011      3014      3016      3013      3011      3014      3017
      3014      3017      3020      3021      3014      3017      3020      3022
      3014      3017      3020      3023      3015      3014      3017      3018
      3015      3014      3017      3019      3015      3014      3017      3020
      3016      3014      3017      3018      3016      3014      3017      3019
      3016      3014      3017      3020      3017      3020      3023      3024
      3017      3020      3023      3025      3017      3020      3023      3026
      3018      3017      3020      3021      3018      3017      3020      3022
      3018      3017      3020      3023      3019      3017      3020      3021
      3019      3017      3020      3022      3019      3017      3020      3023
      3020      3023      3026      3027      3020      3023      3026      3028
      3020      3023      3026      3029      3021      3020      3023      3024
      3021      3020      3023      3025      3021      3020      3023      3026
      3022      3020      3023      3024      3022      3020      3023      3025
      3022      3020      3023      3026      3023      3026      3029      3030
      3023      3026      3029      3031      3023      3026      3029      3032
      3024      3023      3026      3027      3024      3023      3026      3028
      3024      3023      3026      3029      3025      3023      3026      3027
      3025      3023      3026      3028      3025      3023      3026      3029
      3027      3026      3029      3030      3027      3026      3029      3031
      3027      3026      3029      3032      3028      3026      3029      3030
      3028      3026      3029      3031      3028      3026      3029      3032
      3033      3034      3049      3050      3033      3034      3049      3051
      3033      3034      3049      3055      3034      3033      3037      3038
      3034      3033      3037      3039      3034      3033      3037      3040
      3034      3033      3041      3042      3034      3033      3041      3043
      3034      3033      3041      3044      3034      3033      3045      3046
      3034      3033      3045      3047      3034      3033      3045      3048
      3034      3049      3055      3052      3035      3034      3033      3037
      3035      3034      3033      3041      3035      3034      3033      3045
      3035      3034      3049      3050      3035      3034      3049      3051
      3035      3034      3049      3055      3036      3034      3033      3037
      3036      3034      3033      3041      3036      3034      3033      3045
      3036      3034      3049      3050      3036      3034      3049      3051
      3036      3034      3049      3055      3037      3033      3034      3049
      3037      3033      3041      3042      3037      3033      3041      3043
      3037      3033      3041      3044      3037      3033      3045      3046
      3037      3033      3045      3047      3037      3033      3045      3048
      3038      3037      3033      3041      3038      3037      3033      3045
      3039      3037      3033      3041      3039      3037      3033      3045
      3040      3037      3033      3041      3040      3037      3033      3045
      3041      3033      3034      3049      3041      3033      3045      3046
      3041      3033      3045      3047      3041      3033      3045      3048
      3042      3041      3033      3045      3043      3041      3033      3045
      3044      3041      3033      3045      3045      3033      3034      3049
      3049      3055      3052      3053      3049      3055      3052      3054
      3049      3055      3052      3056      3050      3049      3055      3052
      3051      3049      3055      3052      3052      3056      3057      3058
      3052      3056      3057      3059      3052      3056      3057      3060
      3053      3052      3056      3057      3054      3052      3056      3057
      3055      3052      3056      3057      3056      3057      3060      3061
      3056      3057      3060      3062      3056      3057      3060      3068
      3057      3060      3062      3063      3057      3060      3068      3069
      3057      3060      3068      3070      3057      3060      3068      3071
      3058      3057      3060      3061      3058      3057      3060      3062
      3058      3057      3060      3068      3059      3057      3060      3061
      3059      3057      3060      3062      3059      3057      3060      3068
      3060      3062      3063      3064      3060      3062      3063      3065
      3060      3068      3071      3072      3061      3060      3062      3063
      3061      3060      3068      3069      3061      3060      3068      3070
      3061      3060      3068      3071      3062      3060      3068      3069
      3062      3060      3068      3070      3062      3060      3068      3071
      3062      3063      3065      3066      3062      3063      3065      3067
      3062      3063      3065      3077      3063      3062      3060      3068
      3063      3065      3077      3078      3063      3065      3077      3079
      3063      3065      3077      3080      3064      3063      3065      3066
      3064      3063      3065      3067      3064      3063      3065      3077
      3065      3077      3080      3081      3065      3077      3080      3082
      3065      3077      3080      3083      3066      3065      3077      3078
      3066      3065      3077      3079      3066      3065      3077      3080
      3067      3065      3077      3078      3067      3065      3077      3079
      3067      3065      3077      3080      3068      3071      3072      3073
      3068      3071      3072      3074      3069      3068      3071      3072
      3070      3068      3071      3072      3071      3072      3074      3075
      3071      3072      3074      3076      3071      3072      3074      3124
      3072      3074      3124      3125      3072      3074      3124      3126
      3072      3074      3124      3127      3073      3072      3074      3075
      3073      3072      3074      3076      3073      3072      3074      3124
      3074      3124      3127      3128      3074      3124      3127      3129
      3074      3124      3127      3130      3075      3074      3124      3125
      3075      3074      3124      3126      3075      3074      3124      3127
      3076      3074      3124      3125      3076      3074      3124      3126
      3076      3074      3124      3127      3077      3080      3083      3084
      3077      3080      3083      3085      3077      3080      3083      3086
      3078      3077      3080      3081      3078      3077      3080      3082
      3078      3077      3080      3083      3079      3077      3080      3081
      3079      3077      3080      3082      3079      3077      3080      3083
      3080      3083      3086      3087      3080      3083      3086      3088
      3080      3083      3086      3089      3081      3080      3083      3084
      3081      3080      3083      3085      3081      3080      3083      3086
      3082      3080      3083      3084      3082      3080      3083      3085
      3082      3080      3083      3086      3083      3086      3089      3090
      3083      3086      3089      3091      3083      3086      3089      3092
      3084      3083      3086      3087      3084      3083      3086      3088
      3084      3083      3086      3089      3085      3083      3086      3087
      3085      3083      3086      3088      3085      3083      3086      3089
      3086      3089      3092      3093      3086      3089      3092      3094
      3086      3089      3092      3095      3087      3086      3089      3090
      3087      3086      3089      3091      3087      3086      3089      3092
      3088      3086      3089      3090      3088      3086      3089      3091
      3088      3086      3089      3092      3089      3092      3095      3096
      3089      3092      3095      3097      3090      3089      3092      3093
      3090      3089      3092      3094      3090      3089      3092      3095
      3091      3089      3092      3093      3091      3089      3092      3094
      3091      3089      3092      3095      3092      3095      3097      3098
      3092      3095      3097      3099      3093      3092      3095      3096
      3093      3092      3095      3097      3094      3092      3095      3096
      3094      3092      3095      3097      3095      3097      3099      3100
      3095      3097      3099      3101      3095      3097      3099      3102
      3096      3095      3097      3098      3096      3095      3097      3099
      3097      3099      3102      3103      3097      3099      3102      3104
      3097      3099      3102      3105      3098      3097      3099      3100
      3098      3097      3099      3101      3098      3097      3099      3102
      3099      3102      3105      3106      3099      3102      3105      3107
      3099      3102      3105      3108      3100      3099      3102      3103
      3100      3099      3102      3104      3100      3099      3102      3105
      3101      3099      3102      3103      3101      3099      3102      3104
      3101      3099      3102      3105      3102      3105      3108      3109
      3102      3105      3108      3110      3102      3105      3108      3111
      3103      3102      3105      3106      3103      3102      3105      3107
      3103      3102      3105      3108      3104      3102      3105      3106
      3104      3102      3105      3107      3104      3102      3105      3108
      3105      3108      3111      3112      3105      3108      3111      3113
      3105      3108      3111      3114      3106      3105      3108      3109
      3106      3105      3108      3110      3106      3105      3108      3111
      3107      3105      3108      3109      3107      3105      3108      3110
      3107      3105      3108      3111      3108      3111      3114      3115
      3108      3111      3114      3116      3108      3111      3114      3117
      3109      3108      3111      3112      3109      3108      3111      3113
      3109      3108      3111      3114      3110      3108      3111      3112
      3110      3108      3111      3113      3110      3108      3111      3114
      3111      3114      3117      3118      3111      3114      3117      3119
      3111      3114      3117      3120      3112      3111      3114      3115
      3112      3111      3114      3116      3112      3111      3114      3117
      3113      3111      3114      3115      3113      3111      3114      3116
      3113      3111      3114      3117      3114      3117      3120      3121
      3114      3117      3120      3122      3114      3117      3120      3123
      3115      3114      3117      3118      3115      3114      3117      3119
      3115      3114      3117      3120      3116      3114      3117      3118
      3116      3114      3117      3119      3116      3114      3117      3120
      3118      3117      3120      3121      3118      3117      3120      3122
      3118      3117      3120      3123      3119      3117      3120      3121
      3119      3117      3120      3122      3119      3117      3120      3123
      3124      3127      3130      3131      3124      3127      3130      3132
      3124      3127      3130      3133      3125      3124      3127      3128
      3125      3124      3127      3129      3125      3124      3127      3130
      3126      3124      3127      3128      3126      3124      3127      3129
      3126      3124      3127      3130      3127      3130      3133      3134
      3127      3130      3133      3135      3127      3130      3133      3136
      3128      3127      3130      3131      3128      3127      3130      3132
      3128      3127      3130      3133      3129      3127      3130      3131
      3129      3127      3130      3132      3129      3127      3130      3133
      3130      3133      3136      3137      3130      3133      3136      3138
      3130      3133      3136      3139      3131      3130      3133      3134
      3131      3130      3133      3135      3131      3130      3133      3136
      3132      3130      3133      3134      3132      3130      3133      3135
      3132      3130      3133      3136      3133      3136      3139      3140
      3133      3136      3139      3141      3133      3136      3139      3142
      3134      3133      3136      3137      3134      3133      3136      3138
      3134      3133      3136      3139      3135      3133      3136      3137
      3135      3133      3136      3138      3135      3133      3136      3139
      3136      3139      3142      3143      3136      3139      3142      3144
      3136      3139      3142      3145      3137      3136      3139      3140
      3137      3136      3139      3141      3137      3136      3139      3142
      3138      3136      3139      3140      3138      3136      3139      3141
      3138      3136      3139      3142      3139      3142      3145      3146
      3139      3142      3145      3147      3139      3142      3145      3148
      3140      3139      3142      3143      3140      3139      3142      3144
      3140      3139      3142      3145      3141      3139      3142      3143
      3141      3139      3142      3144      3141      3139      3142      3145
      3142      3145      3148      3149      3142      3145      3148      3150
      3142      3145      3148      3151      3143      3142      3145      3146
      3143      3142      3145      3147      3143      3142      3145      3148
      3144      3142      3145      3146      3144      3142      3145      3147
      3144      3142      3145      3148      3145      3148      3151      3152
      3145      3148      3151      3153      3145      3148      3151      3154
      3146      3145      3148      3149      3146      3145      3148      3150
      3146      3145      3148      3151      3147      3145      3148      3149
      3147      3145      3148      3150      3147      3145      3148      3151
      3148      3151      3154      3155      3148      3151      3154      3156
      3148      3151      3154      3157      3149      3148      3151      3152
      3149      3148      3151      3153      3149      3148      3151      3154
      3150      3148      3151      3152      3150      3148      3151      3153
      3150      3148      3151      3154      3151      3154      3157      3158
      3151      3154      3157      3159      3151      3154      3157      3160
      3152      3151      3154      3155      3152      3151      3154      3156
      3152      3151      3154      3157      3153      3151      3154      3155
      3153      3151      3154      3156      3153      3151      3154      3157
      3154      3157      3160      3161      3154      3157      3160      3162
      3154      3157      3160      3163      3155      3154      3157      3158
      3155      3154      3157      3159      3155      3154      3157      3160
      3156      3154      3157      3158      3156      3154      3157      3159
      3156      3154      3157      3160      3157      3160      3163      3164
      3157      3160      3163      3165      3157      3160      3163      3166
      3158      3157      3160      3161      3158      3157      3160      3162
      3158      3157      3160      3163      3159      3157      3160      3161
      3159      3157      3160      3162      3159      3157      3160      3163
      3161      3160      3163      3164      3161      3160      3163      3165
      3161      3160      3163      3166      3162      3160      3163      3164
      3162      3160      3163      3165      3162      3160      3163      3166
      3167      3168      3183      3184      3167      3168      3183      3185
      3167      3168      3183      3189      3168      3167      3171      3172
      3168      3167      3171      3173      3168      3167      3171      3174
      3168      3167      3175      3176      3168      3167      3175      3177
      3168      3167      3175      3178      3168      3167      3179      3180
      3168      3167      3179      3181      3168      3167      3179      3182
      3168      3183      3189      3186      3169      3168      3167      3171
      3169      3168      3167      3175      3169      3168      3167      3179
      3169      3168      3183      3184      3169      3168      3183      3185
      3169      3168      3183      3189      3170      3168      3167      3171
      3170      3168      3167      3175      3170      3168      3167      3179
      3170      3168      3183      3184      3170      3168      3183      3185
      3170      3168      3183      3189      3171      3167      3168      3183
      3171      3167      3175      3176      3171      3167      3175      3177
      3171      3167      3175      3178      3171      3167      3179      3180
      3171      3167      3179      3181      3171      3167      3179      3182
      3172      3171      3167      3175      3172      3171      3167      3179
      3173      3171      3167      3175      3173      3171      3167      3179
      3174      3171      3167      3175      3174      3171      3167      3179
      3175      3167      3168      3183      3175      3167      3179      3180
      3175      3167      3179      3181      3175      3167      3179      3182
      3176      3175      3167      3179      3177      3175      3167      3179
      3178      3175      3167      3179      3179      3167      3168      3183
      3183      3189      3186      3187      3183      3189      3186      3188
      3183      3189      3186      3190      3184      3183      3189      3186
      3185      3183      3189      3186      3186      3190      3191      3192
      3186      3190      3191      3193      3186      3190      3191      3194
      3187      3186      3190      3191      3188      3186      3190      3191
      3189      3186      3190      3191      3190      3191      3194      3195
      3190      3191      3194      3196      3190      3191      3194      3202
      3191      3194      3196      3197      3191      3194      3202      3203
      3191      3194      3202      3204      3191      3194      3202      3205
      3192      3191      3194      3195      3192      3191      3194      3196
      3192      3191      3194      3202      3193      3191      3194      3195
      3193      3191      3194      3196      3193      3191      3194      3202
      3194      3196      3197      3198      3194      3196      3197      3199
      3194      3202      3205      3206      3195      3194      3196      3197
      3195      3194      3202      3203      3195      3194      3202      3204
      3195      3194      3202      3205      3196      3194      3202      3203
      3196      3194      3202      3204      3196      3194      3202      3205
      3196      3197      3199      3200      3196      3197      3199      3201
      3196      3197      3199      3211      3197      3196      3194      3202
      3197      3199      3211      3212      3197      3199      3211      3213
      3197      3199      3211      3214      3198      3197      3199      3200
      3198      3197      3199      3201      3198      3197      3199      3211
      3199      3211      3214      3215      3199      3211      3214      3216
      3199      3211      3214      3217      3200      3199      3211      3212
      3200      3199      3211      3213      3200      3199      3211      3214
      3201      3199      3211      3212      3201      3199      3211      3213
      3201      3199      3211      3214      3202      3205      3206      3207
      3202      3205      3206      3208      3203      3202      3205      3206
      3204      3202      3205      3206      3205      3206      3208      3209
      3205      3206      3208      3210      3205      3206      3208      3258
      3206      3208      3258      3259      3206      3208      3258      3260
      3206      3208      3258      3261      3207      3206      3208      3209
      3207      3206      3208      3210      3207      3206      3208      3258
      3208      3258      3261      3262      3208      3258      3261      3263
      3208      3258      3261      3264      3209      3208      3258      3259
      3209      3208      3258      3260      3209      3208      3258      3261
      3210      3208      3258      3259      3210      3208      3258      3260
      3210      3208      3258      3261      3211      3214      3217      3218
      3211      3214      3217      3219      3211      3214      3217      3220
      3212      3211      3214      3215      3212      3211      3214      3216
      3212      3211      3214      3217      3213      3211      3214      3215
      3213      3211      3214      3216      3213      3211      3214      3217
      3214      3217      3220      3221      3214      3217      3220      3222
      3214      3217      3220      3223      3215      3214      3217      3218
      3215      3214      3217      3219      3215      3214      3217      3220
      3216      3214      3217      3218      3216      3214      3217      3219
      3216      3214      3217      3220      3217      3220      3223      3224
      3217      3220      3223      3225      3217      3220      3223      3226
      3218      3217      3220      3221      3218      3217      3220      3222
      3218      3217      3220      3223      3219      3217      3220      3221
      3219      3217      3220      3222      3219      3217      3220      3223
      3220      3223      3226      3227      3220      3223      3226      3228
      3220      3223      3226      3229      3221      3220      3223      3224
      3221      3220      3223      3225      3221      3220      3223      3226
      3222      3220      3223      3224      3222      3220      3223      3225
      3222      3220      3223      3226      3223      3226      3229      3230
      3223      3226      3229      3231      3224      3223      3226      3227
      3224      3223      3226      3228      3224      3223      3226      3229
      3225      3223      3226      3227      3225      3223      3226      3228
      3225      3223      3226      3229      3226      3229      3231      3232
      3226      3229      3231      3233      3227      3226      3229      3230
      3227      3226      3229      3231      3228      3226      3229      3230
      3228      3226      3229      3231      3229      3231      3233      3234
      3229      3231      3233      3235      3229      3231      3233      3236
      3230      3229      3231      3232      3230      3229      3231      3233
      3231      3233      3236      3237      3231      3233      3236      3238
      3231      3233      3236      3239      3232      3231      3233      3234
      3232      3231      3233      3235      3232      3231      3233      3236
      3233      3236      3239      3240      3233      3236      3239      3241
      3233      3236      3239      3242      3234      3233      3236      3237
      3234      3233      3236      3238      3234      3233      3236      3239
      3235      3233      3236      3237      3235      3233      3236      3238
      3235      3233      3236      3239      3236      3239      3242      3243
      3236      3239      3242      3244      3236      3239      3242      3245
      3237      3236      3239      3240      3237      3236      3239      3241
      3237      3236      3239      3242      3238      3236      3239      3240
      3238      3236      3239      3241      3238      3236      3239      3242
      3239      3242      3245      3246      3239      3242      3245      3247
      3239      3242      3245      3248      3240      3239      3242      3243
      3240      3239      3242      3244      3240      3239      3242      3245
      3241      3239      3242      3243      3241      3239      3242      3244
      3241      3239      3242      3245      3242      3245      3248      3249
      3242      3245      3248      3250      3242      3245      3248      3251
      3243      3242      3245      3246      3243      3242      3245      3247
      3243      3242      3245      3248      3244      3242      3245      3246
      3244      3242      3245      3247      3244      3242      3245      3248
      3245      3248      3251      3252      3245      3248      3251      3253
      3245      3248      3251      3254      3246      3245      3248      3249
      3246      3245      3248      3250      3246      3245      3248      3251
      3247      3245      3248      3249      3247      3245      3248      3250
      3247      3245      3248      3251      3248      3251      3254      3255
      3248      3251      3254      3256      3248      3251      3254      3257
      3249      3248      3251      3252      3249      3248      3251      3253
      3249      3248      3251      3254      3250      3248      3251      3252
      3250      3248      3251      3253      3250      3248      3251      3254
      3252      3251      3254      3255      3252      3251      3254      3256
      3252      3251      3254      3257      3253      3251      3254      3255
      3253      3251      3254      3256      3253      3251      3254      3257
      3258      3261      3264      3265      3258      3261      3264      3266
      3258      3261      3264      3267      3259      3258      3261      3262
      3259      3258      3261      3263      3259      3258      3261      3264
      3260      3258      3261      3262      3260      3258      3261      3263
      3260      3258      3261      3264      3261      3264      3267      3268
      3261      3264      3267      3269      3261      3264      3267      3270
      3262      3261      3264      3265      3262      3261      3264      3266
      3262      3261      3264      3267      3263      3261      3264      3265
      3263      3261      3264      3266      3263      3261      3264      3267
      3264      3267      3270      3271      3264      3267      3270      3272
      3264      3267      3270      3273      3265      3264      3267      3268
      3265      3264      3267      3269      3265      3264      3267      3270
      3266      3264      3267      3268      3266      3264      3267      3269
      3266      3264      3267      3270      3267      3270      3273      3274
      3267      3270      3273      3275      3267      3270      3273      3276
      3268      3267      3270      3271      3268      3267      3270      3272
      3268      3267      3270      3273      3269      3267      3270      3271
      3269      3267      3270      3272      3269      3267      3270      3273
      3270      3273      3276      3277      3270      3273      3276      3278
      3270      3273      3276      3279      3271      3270      3273      3274
      3271      3270      3273      3275      3271      3270      3273      3276
      3272      3270      3273      3274      3272      3270      3273      3275
      3272      3270      3273      3276      3273      3276      3279      3280
      3273      3276      3279      3281      3273      3276      3279      3282
      3274      3273      3276      3277      3274      3273      3276      3278
      3274      3273      3276      3279      3275      3273      3276      3277
      3275      3273      3276      3278      3275      3273      3276      3279
      3276      3279      3282      3283      3276      3279      3282      3284
      3276      3279      3282      3285      3277      3276      3279      3280
      3277      3276      3279      3281      3277      3276      3279      3282
      3278      3276      3279      3280      3278      3276      3279      3281
      3278      3276      3279      3282      3279      3282      3285      3286
      3279      3282      3285      3287      3279      3282      3285      3288
      3280      3279      3282      3283      3280      3279      3282      3284
      3280      3279      3282      3285      3281      3279      3282      3283
      3281      3279      3282      3284      3281      3279      3282      3285
      3282      3285      3288      3289      3282      3285      3288      3290
      3282      3285      3288      3291      3283      3282      3285      3286
      3283      3282      3285      3287      3283      3282      3285      3288
      3284      3282      3285      3286      3284      3282      3285      3287
      3284      3282      3285      3288      3285      3288      3291      3292
      3285      3288      3291      3293      3285      3288      3291      3294
      3286      3285      3288      3289      3286      3285      3288      3290
      3286      3285      3288      3291      3287      3285      3288      3289
      3287      3285      3288      3290      3287      3285      3288      3291
      3288      3291      3294      3295      3288      3291      3294      3296
      3288      3291      3294      3297      3289      3288      3291      3292
      3289      3288      3291      3293      3289      3288      3291      3294
      3290      3288      3291      3292      3290      3288      3291      3293
      3290      3288      3291      3294      3291      3294      3297      3298
      3291      3294      3297      3299      3291      3294      3297      3300
      3292      3291      3294      3295      3292      3291      3294      3296
      3292      3291      3294      3297      3293      3291      3294      3295
      3293      3291      3294      3296      3293      3291      3294      3297
      3295      3294      3297      3298      3295      3294      3297      3299
      3295      3294      3297      3300      3296      3294      3297      3298
      3296      3294      3297      3299      3296      3294      3297      3300
      3301      3305      3307      3308      3301      3305      3307      3309
      3301      3305      3310      3311      3301      3305      3310      3312
      3301      3305      3310      3316      3302      3301      3305      3306
      3302      3301      3305      3307      3302      3301      3305      3310
      3303      3301      3305      3306      3303      3301      3305      3307
      3303      3301      3305      3310      3304      3301      3305      3306
      3304      3301      3305      3307      3304      3301      3305      3310
      3305      3310      3316      3313      3306      3305      3307      3308
      3306      3305      3307      3309      3306      3305      3310      3311
      3306      3305      3310      3312      3306      3305      3310      3316
      3307      3305      3310      3311      3307      3305      3310      3312
      3307      3305      3310      3316      3308      3307      3305      3310
      3309      3307      3305      3310      3310      3316      3313      3314
      3310      3316      3313      3315      3310      3316      3313      3317
      3311      3310      3316      3313      3312      3310      3316      3313
      3313      3317      3318      3319      3313      3317      3318      3320
      3313      3317      3318      3321      3314      3313      3317      3318
      3315      3313      3317      3318      3316      3313      3317      3318
      3317      3318      3321      3322      3317      3318      3321      3323
      3317      3318      3321      3329      3318      3321      3323      3324
      3318      3321      3329      3330      3318      3321      3329      3331
      3318      3321      3329      3332      3319      3318      3321      3322
      3319      3318      3321      3323      3319      3318      3321      3329
      3320      3318      3321      3322      3320      3318      3321      3323
      3320      3318      3321      3329      3321      3323      3324      3325
      3321      3323      3324      3326      3321      3329      3332      3333
      3322      3321      3323      3324      3322      3321      3329      3330
      3322      3321      3329      3331      3322      3321      3329      3332
      3323      3321      3329      3330      3323      3321      3329      3331
      3323      3321      3329      3332      3323      3324      3326      3327
      3323      3324      3326      3328      3323      3324      3326      3338
      3324      3323      3321      3329      3324      3326      3338      3339
      3324      3326      3338      3340      3324      3326      3338      3341
      3325      3324      3326      3327      3325      3324      3326      3328
      3325      3324      3326      3338      3326      3338      3341      3342
      3326      3338      3341      3343      3326      3338      3341      3344
      3327      3326      3338      3339      3327      3326      3338      3340
      3327      3326      3338      3341      3328      3326      3338      3339
      3328      3326      3338      3340      3328      3326      3338      3341
      3329      3332      3333      3334      3329      3332      3333      3335
      3330      3329      3332      3333      3331      3329      3332      3333
      3332      3333      3335      3336      3332      3333      3335      3337
      3332      3333      3335      3385      3333      3335      3385      3386
      3333      3335      3385      3387      3333      3335      3385      3388
      3334      3333      3335      3336      3334      3333      3335      3337
      3334      3333      3335      3385      3335      3385      3388      3389
      3335      3385      3388      3390      3335      3385      3388      3391
      3336      3335      3385      3386      3336      3335      3385      3387
      3336      3335      3385      3388      3337      3335      3385      3386
      3337      3335      3385      3387      3337      3335      3385      3388
      3338      3341      3344      3345      3338      3341      3344      3346
      3338      3341      3344      3347      3339      3338      3341      3342
      3339      3338      3341      3343      3339      3338      3341      3344
      3340      3338      3341      3342      3340      3338      3341      3343
      3340      3338      3341      3344      3341      3344      3347      3348
      3341      3344      3347      3349      3341      3344      3347      3350
      3342      3341      3344      3345      3342      3341      3344      3346
      3342      3341      3344      3347      3343      3341      3344      3345
      3343      3341      3344      3346      3343      3341      3344      3347
      3344      3347      3350      3351      3344      3347      3350      3352
      3344      3347      3350      3353      3345      3344      3347      3348
      3345      3344      3347      3349      3345      3344      3347      3350
      3346      3344      3347      3348      3346      3344      3347      3349
      3346      3344      3347      3350      3347      3350      3353      3354
      3347      3350      3353      3355      3347      3350      3353      3356
      3348      3347      3350      3351      3348      3347      3350      3352
      3348      3347      3350      3353      3349      3347      3350      3351
      3349      3347      3350      3352      3349      3347      3350      3353
      3350      3353      3356      3357      3350      3353      3356      3358
      3351      3350      3353      3354      3351      3350      3353      3355
      3351      3350      3353      3356      3352      3350      3353      3354
      3352      3350      3353      3355      3352      3350      3353      3356
      3353      3356      3358      3359      3353      3356      3358      3360
      3354      3353      3356      3357      3354      3353      3356      3358
      3355      3353      3356      3357      3355      3353      3356      3358
      3356      3358      3360      3361      3356      3358      3360      3362
      3356      3358      3360      3363      3357      3356      3358      3359
      3357      3356      3358      3360      3358      3360      3363      3364
      3358      3360      3363      3365      3358      3360      3363      3366
      3359      3358      3360      3361      3359      3358      3360      3362
      3359      3358      3360      3363      3360      3363      3366      3367
      3360      3363      3366      3368      3360      3363      3366      3369
      3361      3360      3363      3364      3361      3360      3363      3365
      3361      3360      3363      3366      3362      3360      3363      3364
      3362      3360      3363      3365      3362      3360      3363      3366
      3363      3366      3369      3370      3363      3366      3369      3371
      3363      3366      3369      3372      3364      3363      3366      3367
      3364      3363      3366      3368      3364      3363      3366      3369
      3365      3363      3366      3367      3365      3363      3366      3368
      3365      3363      3366      3369      3366      3369      3372      3373
      3366      3369      3372      3374      3366      3369      3372      3375
      3367      3366      3369      3370      3367      3366      3369      3371
      3367      3366      3369      3372      3368      3366      3369      3370
      3368      3366      3369      3371      3368      3366      3369      3372
      3369      3372      3375      3376      3369      3372      3375      3377
      3369      3372      3375      3378      3370      3369      3372      3373
      3370      3369      3372      3374      3370      3369      3372      3375
      3371      3369      3372      3373      3371      3369      3372      3374
      3371      3369      3372      3375      3372      3375      3378      3379
      3372      3375      3378      3380      3372      3375      3378      3381
      3373      3372      3375      3376      3373      3372      3375      3377
      3373      3372      3375      3378      3374      3372      3375      3376
      3374      3372      3375      3377      3374      3372      3375      3378
      3375      3378      3381      3382      3375      3378      3381      3383
      3375      3378      3381      3384      3376      3375      3378      3379
      3376      3375      3378      3380      3376      3375      3378      3381
      3377      3375      3378      3379      3377      3375      3378      3380
      3377      3375      3378      3381      3379      3378      3381      3382
      3379      3378      3381      3383      3379      3378      3381      3384
      3380      3378      3381      3382      3380      3378      3381      3383
      3380      3378      3381      3384      3385      3388      3391      3392
      3385      3388      3391      3393      3385      3388      3391      3394
      3386      3385      3388      3389      3386      3385      3388      3390
      3386      3385      3388      3391      3387      3385      3388      3389
      3387      3385      3388      3390      3387      3385      3388      3391
      3388      3391      3394      3395      3388      3391      3394      3396
      3388      3391      3394      3397      3389      3388      3391      3392
      3389      3388      3391      3393      3389      3388      3391      3394
      3390      3388      3391      3392      3390      3388      3391      3393
      3390      3388      3391      3394      3391      3394      3397      3398
      3391      3394      3397      3399      3391      3394      3397      3400
      3392      3391      3394      3395      3392      3391      3394      3396
      3392      3391      3394      3397      3393      3391      3394      3395
      3393      3391      3394      3396      3393      3391      3394      3397
      3394      3397      3400      3401      3394      3397      3400      3402
      3394      3397      3400      3403      3395      3394      3397      3398
      3395      3394      3397      3399      3395      3394      3397      3400
      3396      3394      3397      3398      3396      3394      3397      3399
      3396      3394      3397      3400      3397      3400      3403      3404
      3397      3400      3403      3405      3397      3400      3403      3406
      3398      3397      3400      3401      3398      3397      3400      3402
      3398      3397      3400      3403      3399      3397      3400      3401
      3399      3397      3400      3402      3399      3397      3400      3403
      3400      3403      3406      3407      3400      3403      3406      3408
      3400      3403      3406      3409      3401      3400      3403      3404
      3401      3400      3403      3405      3401      3400      3403      3406
      3402      3400      3403      3404      3402      3400      3403      3405
      3402      3400      3403      3406      3403      3406      3409      3410
      3403      3406      3409      3411      3403      3406      3409      3412
      3404      3403      3406      3407      3404      3403      3406      3408
      3404      3403      3406      3409      3405      3403      3406      3407
      3405      3403      3406      3408      3405      3403      3406      3409
      3406      3409      3412      3413      3406      3409      3412      3414
      3406      3409      3412      3415      3407      3406      3409      3410
      3407      3406      3409      3411      3407      3406      3409      3412
      3408      3406      3409      3410      3408      3406      3409      3411
      3408      3406      3409      3412      3409      3412      3415      3416
      3409      3412      3415      3417      3409      3412      3415      3418
      3410      3409      3412      3413      3410      3409      3412      3414
      3410      3409      3412      3415      3411      3409      3412      3413
      3411      3409      3412      3414      3411      3409      3412      3415
      3412      3415      3418      3419      3412      3415      3418      3420
      3412      3415      3418      3421      3413      3412      3415      3416
      3413      3412      3415      3417      3413      3412      3415      3418
      3414      3412      3415      3416      3414      3412      3415      3417
      3414      3412      3415      3418      3415      3418      3421      3422
      3415      3418      3421      3423      3415      3418      3421      3424
      3416      3415      3418      3419      3416      3415      3418      3420
      3416      3415      3418      3421      3417      3415      3418      3419
      3417      3415      3418      3420      3417      3415      3418      3421
      3418      3421      3424      3425      3418      3421      3424      3426
      3418      3421      3424      3427      3419      3418      3421      3422
      3419      3418      3421      3423      3419      3418      3421      3424
      3420      3418      3421      3422      3420      3418      3421      3423
      3420      3418      3421      3424      3422      3421      3424      3425
      3422      3421      3424      3426      3422      3421      3424      3427
      3423      3421      3424      3425      3423      3421      3424      3426
      3423      3421      3424      3427      3428      3429      3444      3445
      3428      3429      3444      3446      3428      3429      3444      3450
      3429      3428      3432      3433      3429      3428      3432      3434
      3429      3428      3432      3435      3429      3428      3436      3437
      3429      3428      3436      3438      3429      3428      3436      3439
      3429      3428      3440      3441      3429      3428      3440      3442
      3429      3428      3440      3443      3429      3444      3450      3447
      3430      3429      3428      3432      3430      3429      3428      3436
      3430      3429      3428      3440      3430      3429      3444      3445
      3430      3429      3444      3446      3430      3429      3444      3450
      3431      3429      3428      3432      3431      3429      3428      3436
      3431      3429      3428      3440      3431      3429      3444      3445
      3431      3429      3444      3446      3431      3429      3444      3450
      3432      3428      3429      3444      3432      3428      3436      3437
      3432      3428      3436      3438      3432      3428      3436      3439
      3432      3428      3440      3441      3432      3428      3440      3442
      3432      3428      3440      3443      3433      3432      3428      3436
      3433      3432      3428      3440      3434      3432      3428      3436
      3434      3432      3428      3440      3435      3432      3428      3436
      3435      3432      3428      3440      3436      3428      3429      3444
      3436      3428      3440      3441      3436      3428      3440      3442
      3436      3428      3440      3443      3437      3436      3428      3440
      3438      3436      3428      3440      3439      3436      3428      3440
      3440      3428      3429      3444      3444      3450      3447      3448
      3444      3450      3447      3449      3444      3450      3447      3451
      3445      3444      3450      3447      3446      3444      3450      3447
      3447      3451      3452      3453      3447      3451      3452      3454
      3447      3451      3452      3455      3448      3447      3451      3452
      3449      3447      3451      3452      3450      3447      3451      3452
      3451      3452      3455      3456      3451      3452      3455      3457
      3451      3452      3455      3463      3452      3455      3457      3458
      3452      3455      3463      3464      3452      3455      3463      3465
      3452      3455      3463      3466      3453      3452      3455      3456
      3453      3452      3455      3457      3453      3452      3455      3463
      3454      3452      3455      3456      3454      3452      3455      3457
      3454      3452      3455      3463      3455      3457      3458      3459
      3455      3457      3458      3460      3455      3463      3466      3467
      3456      3455      3457      3458      3456      3455      3463      3464
      3456      3455      3463      3465      3456      3455      3463      3466
      3457      3455      3463      3464      3457      3455      3463      3465
      3457      3455      3463      3466      3457      3458      3460      3461
      3457      3458      3460      3462      3457      3458      3460      3472
      3458      3457      3455      3463      3458      3460      3472      3473
      3458      3460      3472      3474      3458      3460      3472      3475
      3459      3458      3460      3461      3459      3458      3460      3462
      3459      3458      3460      3472      3460      3472      3475      3476
      3460      3472      3475      3477      3460      3472      3475      3478
      3461      3460      3472      3473      3461      3460      3472      3474
      3461      3460      3472      3475      3462      3460      3472      3473
      3462      3460      3472      3474      3462      3460      3472      3475
      3463      3466      3467      3468      3463      3466      3467      3469
      3464      3463      3466      3467      3465      3463      3466      3467
      3466      3467      3469      3470      3466      3467      3469      3471
      3466      3467      3469      3519      3467      3469      3519      3520
      3467      3469      3519      3521      3467      3469      3519      3522
      3468      3467      3469      3470      3468      3467      3469      3471
      3468      3467      3469      3519      3469      3519      3522      3523
      3469      3519      3522      3524      3469      3519      3522      3525
      3470      3469      3519      3520      3470      3469      3519      3521
      3470      3469      3519      3522      3471      3469      3519      3520
      3471      3469      3519      3521      3471      3469      3519      3522
      3472      3475      3478      3479      3472      3475      3478      3480
      3472      3475      3478      3481      3473      3472      3475      3476
      3473      3472      3475      3477      3473      3472      3475      3478
      3474      3472      3475      3476      3474      3472      3475      3477
      3474      3472      3475      3478      3475      3478      3481      3482
      3475      3478      3481      3483      3475      3478      3481      3484
      3476      3475      3478      3479      3476      3475      3478      3480
      3476      3475      3478      3481      3477      3475      3478      3479
      3477      3475      3478      3480      3477      3475      3478      3481
      3478      3481      3484      3485      3478      3481      3484      3486
      3478      3481      3484      3487      3479      3478      3481      3482
      3479      3478      3481      3483      3479      3478      3481      3484
      3480      3478      3481      3482      3480      3478      3481      3483
      3480      3478      3481      3484      3481      3484      3487      3488
      3481      3484      3487      3489      3481      3484      3487      3490
      3482      3481      3484      3485      3482      3481      3484      3486
      3482      3481      3484      3487      3483      3481      3484      3485
      3483      3481      3484      3486      3483      3481      3484      3487
      3484      3487      3490      3491      3484      3487      3490      3492
      3485      3484      3487      3488      3485      3484      3487      3489
      3485      3484      3487      3490      3486      3484      3487      3488
      3486      3484      3487      3489      3486      3484      3487      3490
      3487      3490      3492      3493      3487      3490      3492      3494
      3488      3487      3490      3491      3488      3487      3490      3492
      3489      3487      3490      3491      3489      3487      3490      3492
      3490      3492      3494      3495      3490      3492      3494      3496
      3490      3492      3494      3497      3491      3490      3492      3493
      3491      3490      3492      3494      3492      3494      3497      3498
      3492      3494      3497      3499      3492      3494      3497      3500
      3493      3492      3494      3495      3493      3492      3494      3496
      3493      3492      3494      3497      3494      3497      3500      3501
      3494      3497      3500      3502      3494      3497      3500      3503
      3495      3494      3497      3498      3495      3494      3497      3499
      3495      3494      3497      3500      3496      3494      3497      3498
      3496      3494      3497      3499      3496      3494      3497      3500
      3497      3500      3503      3504      3497      3500      3503      3505
      3497      3500      3503      3506      3498      3497      3500      3501
      3498      3497      3500      3502      3498      3497      3500      3503
      3499      3497      3500      3501      3499      3497      3500      3502
      3499      3497      3500      3503      3500      3503      3506      3507
      3500      3503      3506      3508      3500      3503      3506      3509
      3501      3500      3503      3504      3501      3500      3503      3505
      3501      3500      3503      3506      3502      3500      3503      3504
      3502      3500      3503      3505      3502      3500      3503      3506
      3503      3506      3509      3510      3503      3506      3509      3511
      3503      3506      3509      3512      3504      3503      3506      3507
      3504      3503      3506      3508      3504      3503      3506      3509
      3505      3503      3506      3507      3505      3503      3506      3508
      3505      3503      3506      3509      3506      3509      3512      3513
      3506      3509      3512      3514      3506      3509      3512      3515
      3507      3506      3509      3510      3507      3506      3509      3511
      3507      3506      3509      3512      3508      3506      3509      3510
      3508      3506      3509      3511      3508      3506      3509      3512
      3509      3512      3515      3516      3509      3512      3515      3517
      3509      3512      3515      3518      3510      3509      3512      3513
      3510      3509      3512      3514      3510      3509      3512      3515
      3511      3509      3512      3513      3511      3509      3512      3514
      3511      3509      3512      3515      3513      3512      3515      3516
      3513      3512      3515      3517      3513      3512      3515      3518
      3514      3512      3515      3516      3514      3512      3515      3517
      3514      3512      3515      3518      3519      3522      3525      3526
      3519      3522      3525      3527      3519      3522      3525      3528
      3520      3519      3522      3523      3520      3519      3522      3524
      3520      3519      3522      3525      3521      3519      3522      3523
      3521      3519      3522      3524      3521      3519      3522      3525
      3522      3525      3528      3529      3522      3525      3528      3530
      3522      3525      3528      3531      3523      3522      3525      3526
      3523      3522      3525      3527      3523      3522      3525      3528
      3524      3522      3525      3526      3524      3522      3525      3527
      3524      3522      3525      3528      3525      3528      3531      3532
      3525      3528      3531      3533      3525      3528      3531      3534
      3526      3525      3528      3529      3526      3525      3528      3530
      3526      3525      3528      3531      3527      3525      3528      3529
      3527      3525      3528      3530      3527      3525      3528      3531
      3528      3531      3534      3535      3528      3531      3534      3536
      3528      3531      3534      3537      3529      3528      3531      3532
      3529      3528      3531      3533      3529      3528      3531      3534
      3530      3528      3531      3532      3530      3528      3531      3533
      3530      3528      3531      3534      3531      3534      3537      3538
      3531      3534      3537      3539      3531      3534      3537      3540
      3532      3531      3534      3535      3532      3531      3534      3536
      3532      3531      3534      3537      3533      3531      3534      3535
      3533      3531      3534      3536      3533      3531      3534      3537
      3534      3537      3540      3541      3534      3537      3540      3542
      3534      3537      3540      3543      3535      3534      3537      3538
      3535      3534      3537      3539      3535      3534      3537      3540
      3536      3534      3537      3538      3536      3534      3537      3539
      3536      3534      3537      3540      3537      3540      3543      3544
      3537      3540      3543      3545      3537      3540      3543      3546
      3538      3537      3540      3541      3538      3537      3540      3542
      3538      3537      3540      3543      3539      3537      3540      3541
      3539      3537      3540      3542      3539      3537      3540      3543
      3540      3543      3546      3547      3540      3543      3546      3548
      3540      3543      3546      3549      3541      3540      3543      3544
      3541      3540      3543      3545      3541      3540      3543      3546
      3542      3540      3543      3544      3542      3540      3543      3545
      3542      3540      3543      3546      3543      3546      3549      3550
      3543      3546      3549      3551      3543      3546      3549      3552
      3544      3543      3546      3547      3544      3543      3546      3548
      3544      3543      3546      3549      3545      3543      3546      3547
      3545      3543      3546      3548      3545      3543      3546      3549
      3546      3549      3552      3553      3546      3549      3552      3554
      3546      3549      3552      3555      3547      3546      3549      3550
      3547      3546      3549      3551      3547      3546      3549      3552
      3548      3546      3549      3550      3548      3546      3549      3551
      3548      3546      3549      3552      3549      3552      3555      3556
      3549      3552      3555      3557      3549      3552      3555      3558
      3550      3549      3552      3553      3550      3549      3552      3554
      3550      3549      3552      3555      3551      3549      3552      3553
      3551      3549      3552      3554      3551      3549      3552      3555
      3552      3555      3558      3559      3552      3555      3558      3560
      3552      3555      3558      3561      3553      3552      3555      3556
      3553      3552      3555      3557      3553      3552      3555      3558
      3554      3552      3555      3556      3554      3552      3555      3557
      3554      3552      3555      3558      3556      3555      3558      3559
      3556      3555      3558      3560      3556      3555      3558      3561
      3557      3555      3558      3559      3557      3555      3558      3560
      3557      3555      3558      3561      3562      3563      3578      3579
      3562      3563      3578      3580      3562      3563      3578      3584
      3563      3562      3566      3567      3563      3562      3566      3568
      3563      3562      3566      3569      3563      3562      3570      3571
      3563      3562      3570      3572      3563      3562      3570      3573
      3563      3562      3574      3575      3563      3562      3574      3576
      3563      3562      3574      3577      3563      3578      3584      3581
      3564      3563      3562      3566      3564      3563      3562      3570
      3564      3563      3562      3574      3564      3563      3578      3579
      3564      3563      3578      3580      3564      3563      3578      3584
      3565      3563      3562      3566      3565      3563      3562      3570
      3565      3563      3562      3574      3565      3563      3578      3579
      3565      3563      3578      3580      3565      3563      3578      3584
      3566      3562      3563      3578      3566      3562      3570      3571
      3566      3562      3570      3572      3566      3562      3570      3573
      3566      3562      3574      3575      3566      3562      3574      3576
      3566      3562      3574      3577      3567      3566      3562      3570
      3567      3566      3562      3574      3568      3566      3562      3570
      3568      3566      3562      3574      3569      3566      3562      3570
      3569      3566      3562      3574      3570      3562      3563      3578
      3570      3562      3574      3575      3570      3562      3574      3576
      3570      3562      3574      3577      3571      3570      3562      3574
      3572      3570      3562      3574      3573      3570      3562      3574
      3574      3562      3563      3578      3578      3584      3581      3582
      3578      3584      3581      3583      3578      3584      3581      3585
      3579      3578      3584      3581      3580      3578      3584      3581
      3581      3585      3586      3587      3581      3585      3586      3588
      3581      3585      3586      3589      3582      3581      3585      3586
      3583      3581      3585      3586      3584      3581      3585      3586
      3585      3586      3589      3590      3585      3586      3589      3591
      3585      3586      3589      3597      3586      3589      3591      3592
      3586      3589      3597      3598      3586      3589      3597      3599
      3586      3589      3597      3600      3587      3586      3589      3590
      3587      3586      3589      3591      3587      3586      3589      3597
      3588      3586      3589      3590      3588      3586      3589      3591
      3588      3586      3589      3597      3589      3591      3592      3593
      3589      3591      3592      3594      3589      3597      3600      3601
      3590      3589      3591      3592      3590      3589      3597      3598
      3590      3589      3597      3599      3590      3589      3597      3600
      3591      3589      3597      3598      3591      3589      3597      3599
      3591      3589      3597      3600      3591      3592      3594      3595
      3591      3592      3594      3596      3591      3592      3594      3606
      3592      3591      3589      3597      3592      3594      3606      3607
      3592      3594      3606      3608      3592      3594      3606      3609
      3593      3592      3594      3595      3593      3592      3594      3596
      3593      3592      3594      3606      3594      3606      3609      3610
      3594      3606      3609      3611      3594      3606      3609      3612
      3595      3594      3606      3607      3595      3594      3606      3608
      3595      3594      3606      3609      3596      3594      3606      3607
      3596      3594      3606      3608      3596      3594      3606      3609
      3597      3600      3601      3602      3597      3600      3601      3603
      3598      3597      3600      3601      3599      3597      3600      3601
      3600      3601      3603      3604      3600      3601      3603      3605
      3600      3601      3603      3653      3601      3603      3653      3654
      3601      3603      3653      3655      3601      3603      3653      3656
      3602      3601      3603      3604      3602      3601      3603      3605
      3602      3601      3603      3653      3603      3653      3656      3657
      3603      3653      3656      3658      3603      3653      3656      3659
      3604      3603      3653      3654      3604      3603      3653      3655
      3604      3603      3653      3656      3605      3603      3653      3654
      3605      3603      3653      3655      3605      3603      3653      3656
      3606      3609      3612      3613      3606      3609      3612      3614
      3606      3609      3612      3615      3607      3606      3609      3610
      3607      3606      3609      3611      3607      3606      3609      3612
      3608      3606      3609      3610      3608      3606      3609      3611
      3608      3606      3609      3612      3609      3612      3615      3616
      3609      3612      3615      3617      3609      3612      3615      3618
      3610      3609      3612      3613      3610      3609      3612      3614
      3610      3609      3612      3615      3611      3609      3612      3613
      3611      3609      3612      3614      3611      3609      3612      3615
      3612      3615      3618      3619      3612      3615      3618      3620
      3612      3615      3618      3621      3613      3612      3615      3616
      3613      3612      3615      3617      3613      3612      3615      3618
      3614      3612      3615      3616      3614      3612      3615      3617
      3614      3612      3615      3618      3615      3618      3621      3622
      3615      3618      3621      3623      3615      3618      3621      3624
      3616      3615      3618      3619      3616      3615      3618      3620
      3616      3615      3618      3621      3617      3615      3618      3619
      3617      3615      3618      3620      3617      3615      3618      3621
      3618      3621      3624      3625      3618      3621      3624      3626
      3619      3618      3621      3622      3619      3618      3621      3623
      3619      3618      3621      3624      3620      3618      3621      3622
      3620      3618      3621      3623      3620      3618      3621      3624
      3621      3624      3626      3627      3621      3624      3626      3628
      3622      3621      3624      3625      3622      3621      3624      3626
      3623      3621      3624      3625      3623      3621      3624      3626
      3624      3626      3628      3629      3624      3626      3628      3630
      3624      3626      3628      3631      3625      3624      3626      3627
      3625      3624      3626      3628      3626      3628      3631      3632
      3626      3628      3631      3633      3626      3628      3631      3634
      3627      3626      3628      3629      3627      3626      3628      3630
      3627      3626      3628      3631      3628      3631      3634      3635
      3628      3631      3634      3636      3628      3631      3634      3637
      3629      3628      3631      3632      3629      3628      3631      3633
      3629      3628      3631      3634      3630      3628      3631      3632
      3630      3628      3631      3633      3630      3628      3631      3634
      3631      3634      3637      3638      3631      3634      3637      3639
      3631      3634      3637      3640      3632      3631      3634      3635
      3632      3631      3634      3636      3632      3631      3634      3637
      3633      3631      3634      3635      3633      3631      3634      3636
      3633      3631      3634      3637      3634      3637      3640      3641
      3634      3637      3640      3642      3634      3637      3640      3643
      3635      3634      3637      3638      3635      3634      3637      3639
      3635      3634      3637      3640      3636      3634      3637      3638
      3636      3634      3637      3639      3636      3634      3637      3640
      3637      3640      3643      3644      3637      3640      3643      3645
      3637      3640      3643      3646      3638      3637      3640      3641
      3638      3637      3640      3642      3638      3637      3640      3643
      3639      3637      3640      3641      3639      3637      3640      3642
      3639      3637      3640      3643      3640      3643      3646      3647
      3640      3643      3646      3648      3640      3643      3646      3649
      3641      3640      3643      3644      3641      3640      3643      3645
      3641      3640      3643      3646      3642      3640      3643      3644
      3642      3640      3643      3645      3642      3640      3643      3646
      3643      3646      3649      3650      3643      3646      3649      3651
      3643      3646      3649      3652      3644      3643      3646      3647
      3644      3643      3646      3648      3644      3643      3646      3649
      3645      3643      3646      3647      3645      3643      3646      3648
      3645      3643      3646      3649      3647      3646      3649      3650
      3647      3646      3649      3651      3647      3646      3649      3652
      3648      3646      3649      3650      3648      3646      3649      3651
      3648      3646      3649      3652      3653      3656      3659      3660
      3653      3656      3659      3661      3653      3656      3659      3662
      3654      3653      3656      3657      3654      3653      3656      3658
      3654      3653      3656      3659      3655      3653      3656      3657
      3655      3653      3656      3658      3655      3653      3656      3659
      3656      3659      3662      3663      3656      3659      3662      3664
      3656      3659      3662      3665      3657      3656      3659      3660
      3657      3656      3659      3661      3657      3656      3659      3662
      3658      3656      3659      3660      3658      3656      3659      3661
      3658      3656      3659      3662      3659      3662      3665      3666
      3659      3662      3665      3667      3659      3662      3665      3668
      3660      3659      3662      3663      3660      3659      3662      3664
      3660      3659      3662      3665      3661      3659      3662      3663
      3661      3659      3662      3664      3661      3659      3662      3665
      3662      3665      3668      3669      3662      3665      3668      3670
      3662      3665      3668      3671      3663      3662      3665      3666
      3663      3662      3665      3667      3663      3662      3665      3668
      3664      3662      3665      3666      3664      3662      3665      3667
      3664      3662      3665      3668      3665      3668      3671      3672
      3665      3668      3671      3673      3665      3668      3671      3674
      3666      3665      3668      3669      3666      3665      3668      3670
      3666      3665      3668      3671      3667      3665      3668      3669
      3667      3665      3668      3670      3667      3665      3668      3671
      3668      3671      3674      3675      3668      3671      3674      3676
      3668      3671      3674      3677      3669      3668      3671      3672
      3669      3668      3671      3673      3669      3668      3671      3674
      3670      3668      3671      3672      3670      3668      3671      3673
      3670      3668      3671      3674      3671      3674      3677      3678
      3671      3674      3677      3679      3671      3674      3677      3680
      3672      3671      3674      3675      3672      3671      3674      3676
      3672      3671      3674      3677      3673      3671      3674      3675
      3673      3671      3674      3676      3673      3671      3674      3677
      3674      3677      3680      3681      3674      3677      3680      3682
      3674      3677      3680      3683      3675      3674      3677      3678
      3675      3674      3677      3679      3675      3674      3677      3680
      3676      3674      3677      3678      3676      3674      3677      3679
      3676      3674      3677      3680      3677      3680      3683      3684
      3677      3680      3683      3685      3677      3680      3683      3686
      3678      3677      3680      3681      3678      3677      3680      3682
      3678      3677      3680      3683      3679      3677      3680      3681
      3679      3677      3680      3682      3679      3677      3680      3683
      3680      3683      3686      3687      3680      3683      3686      3688
      3680      3683      3686      3689      3681      3680      3683      3684
      3681      3680      3683      3685      3681      3680      3683      3686
      3682      3680      3683      3684      3682      3680      3683      3685
      3682      3680      3683      3686      3683      3686      3689      3690
      3683      3686      3689      3691      3683      3686      3689      3692
      3684      3683      3686      3687      3684      3683      3686      3688
      3684      3683      3686      3689      3685      3683      3686      3687
      3685      3683      3686      3688      3685      3683      3686      3689
      3686      3689      3692      3693      3686      3689      3692      3694
      3686      3689      3692      3695      3687      3686      3689      3690
      3687      3686      3689      3691      3687      3686      3689      3692
      3688      3686      3689      3690      3688      3686      3689      3691
      3688      3686      3689      3692      3690      3689      3692      3693
      3690      3689      3692      3694      3690      3689      3692      3695
      3691      3689      3692      3693      3691      3689      3692      3694
      3691      3689      3692      3695      3696      3697      3712      3713
      3696      3697      3712      3714      3696      3697      3712      3718
      3697      3696      3700      3701      3697      3696      3700      3702
      3697      3696      3700      3703      3697      3696      3704      3705
      3697      3696      3704      3706      3697      3696      3704      3707
      3697      3696      3708      3709      3697      3696      3708      3710
      3697      3696      3708      3711      3697      3712      3718      3715
      3698      3697      3696      3700      3698      3697      3696      3704
      3698      3697      3696      3708      3698      3697      3712      3713
      3698      3697      3712      3714      3698      3697      3712      3718
      3699      3697      3696      3700      3699      3697      3696      3704
      3699      3697      3696      3708      3699      3697      3712      3713
      3699      3697      3712      3714      3699      3697      3712      3718
      3700      3696      3697      3712      3700      3696      3704      3705
      3700      3696      3704      3706      3700      3696      3704      3707
      3700      3696      3708      3709      3700      3696      3708      3710
      3700      3696      3708      3711      3701      3700      3696      3704
      3701      3700      3696      3708      3702      3700      3696      3704
      3702      3700      3696      3708      3703      3700      3696      3704
      3703      3700      3696      3708      3704      3696      3697      3712
      3704      3696      3708      3709      3704      3696      3708      3710
      3704      3696      3708      3711      3705      3704      3696      3708
      3706      3704      3696      3708      3707      3704      3696      3708
      3708      3696      3697      3712      3712      3718      3715      3716
      3712      3718      3715      3717      3712      3718      3715      3719
      3713      3712      3718      3715      3714      3712      3718      3715
      3715      3719      3720      3721      3715      3719      3720      3722
      3715      3719      3720      3723      3716      3715      3719      3720
      3717      3715      3719      3720      3718      3715      3719      3720
      3719      3720      3723      3724      3719      3720      3723      3725
      3719      3720      3723      3731      3720      3723      3725      3726
      3720      3723      3731      3732      3720      3723      3731      3733
      3720      3723      3731      3734      3721      3720      3723      3724
      3721      3720      3723      3725      3721      3720      3723      3731
      3722      3720      3723      3724      3722      3720      3723      3725
      3722      3720      3723      3731      3723      3725      3726      3727
      3723      3725      3726      3728      3723      3731      3734      3735
      3724      3723      3725      3726      3724      3723      3731      3732
      3724      3723      3731      3733      3724      3723      3731      3734
      3725      3723      3731      3732      3725      3723      3731      3733
      3725      3723      3731      3734      3725      3726      3728      3729
      3725      3726      3728      3730      3725      3726      3728      3740
      3726      3725      3723      3731      3726      3728      3740      3741
      3726      3728      3740      3742      3726      3728      3740      3743
      3727      3726      3728      3729      3727      3726      3728      3730
      3727      3726      3728      3740      3728      3740      3743      3744
      3728      3740      3743      3745      3728      3740      3743      3746
      3729      3728      3740      3741      3729      3728      3740      3742
      3729      3728      3740      3743      3730      3728      3740      3741
      3730      3728      3740      3742      3730      3728      3740      3743
      3731      3734      3735      3736      3731      3734      3735      3737
      3732      3731      3734      3735      3733      3731      3734      3735
      3734      3735      3737      3738      3734      3735      3737      3739
      3734      3735      3737      3787      3735      3737      3787      3788
      3735      3737      3787      3789      3735      3737      3787      3790
      3736      3735      3737      3738      3736      3735      3737      3739
      3736      3735      3737      3787      3737      3787      3790      3791
      3737      3787      3790      3792      3737      3787      3790      3793
      3738      3737      3787      3788      3738      3737      3787      3789
      3738      3737      3787      3790      3739      3737      3787      3788
      3739      3737      3787      3789      3739      3737      3787      3790
      3740      3743      3746      3747      3740      3743      3746      3748
      3740      3743      3746      3749      3741      3740      3743      3744
      3741      3740      3743      3745      3741      3740      3743      3746
      3742      3740      3743      3744      3742      3740      3743      3745
      3742      3740      3743      3746      3743      3746      3749      3750
      3743      3746      3749      3751      3743      3746      3749      3752
      3744      3743      3746      3747      3744      3743      3746      3748
      3744      3743      3746      3749      3745      3743      3746      3747
      3745      3743      3746      3748      3745      3743      3746      3749
      3746      3749      3752      3753      3746      3749      3752      3754
      3746      3749      3752      3755      3747      3746      3749      3750
      3747      3746      3749      3751      3747      3746      3749      3752
      3748      3746      3749      3750      3748      3746      3749      3751
      3748      3746      3749      3752      3749      3752      3755      3756
      3749      3752      3755      3757      3749      3752      3755      3758
      3750      3749      3752      3753      3750      3749      3752      3754
      3750      3749      3752      3755      3751      3749      3752      3753
      3751      3749      3752      3754      3751      3749      3752      3755
      3752      3755      3758      3759      3752      3755      3758      3760
      3753      3752      3755      3756      3753      3752      3755      3757
      3753      3752      3755      3758      3754      3752      3755      3756
      3754      3752      3755      3757      3754      3752      3755      3758
      3755      3758      3760      3761      3755      3758      3760      3762
      3756      3755      3758      3759      3756      3755      3758      3760
      3757      3755      3758      3759      3757      3755      3758      3760
      3758      3760      3762      3763      3758      3760      3762      3764
      3758      3760      3762      3765      3759      3758      3760      3761
      3759      3758      3760      3762      3760      3762      3765      3766
      3760      3762      3765      3767      3760      3762      3765      3768
      3761      3760      3762      3763      3761      3760      3762      3764
      3761      3760      3762      3765      3762      3765      3768      3769
      3762      3765      3768      3770      3762      3765      3768      3771
      3763      3762      3765      3766      3763      3762      3765      3767
      3763      3762      3765      3768      3764      3762      3765      3766
      3764      3762      3765      3767      3764      3762      3765      3768
      3765      3768      3771      3772      3765      3768      3771      3773
      3765      3768      3771      3774      3766      3765      3768      3769
      3766      3765      3768      3770      3766      3765      3768      3771
      3767      3765      3768      3769      3767      3765      3768      3770
      3767      3765      3768      3771      3768      3771      3774      3775
      3768      3771      3774      3776      3768      3771      3774      3777
      3769      3768      3771      3772      3769      3768      3771      3773
      3769      3768      3771      3774      3770      3768      3771      3772
      3770      3768      3771      3773      3770      3768      3771      3774
      3771      3774      3777      3778      3771      3774      3777      3779
      3771      3774      3777      3780      3772      3771      3774      3775
      3772      3771      3774      3776      3772      3771      3774      3777
      3773      3771      3774      3775      3773      3771      3774      3776
      3773      3771      3774      3777      3774      3777      3780      3781
      3774      3777      3780      3782      3774      3777      3780      3783
      3775      3774      3777      3778      3775      3774      3777      3779
      3775      3774      3777      3780      3776      3774      3777      3778
      3776      3774      3777      3779      3776      3774      3777      3780
      3777      3780      3783      3784      3777      3780      3783      3785
      3777      3780      3783      3786      3778      3777      3780      3781
      3778      3777      3780      3782      3778      3777      3780      3783
      3779      3777      3780      3781      3779      3777      3780      3782
      3779      3777      3780      3783      3781      3780      3783      3784
      3781      3780      3783      3785      3781      3780      3783      3786
      3782      3780      3783      3784      3782      3780      3783      3785
      3782      3780      3783      3786      3787      3790      3793      3794
      3787      3790      3793      3795      3787      3790      3793      3796
      3788      3787      3790      3791      3788      3787      3790      3792
      3788      3787      3790      3793      3789      3787      3790      3791
      3789      3787      3790      3792      3789      3787      3790      3793
      3790      3793      3796      3797      3790      3793      3796      3798
      3790      3793      3796      3799      3791      3790      3793      3794
      3791      3790      3793      3795      3791      3790      3793      3796
      3792      3790      3793      3794      3792      3790      3793      3795
      3792      3790      3793      3796      3793      3796      3799      3800
      3793      3796      3799      3801      3793      3796      3799      3802
      3794      3793      3796      3797      3794      3793      3796      3798
      3794      3793      3796      3799      3795      3793      3796      3797
      3795      3793      3796      3798      3795      3793      3796      3799
      3796      3799      3802      3803      3796      3799      3802      3804
      3796      3799      3802      3805      3797      3796      3799      3800
      3797      3796      3799      3801      3797      3796      3799      3802
      3798      3796      3799      3800      3798      3796      3799      3801
      3798      3796      3799      3802      3799      3802      3805      3806
      3799      3802      3805      3807      3799      3802      3805      3808
      3800      3799      3802      3803      3800      3799      3802      3804
      3800      3799      3802      3805      3801      3799      3802      3803
      3801      3799      3802      3804      3801      3799      3802      3805
      3802      3805      3808      3809      3802      3805      3808      3810
      3802      3805      3808      3811      3803      3802      3805      3806
      3803      3802      3805      3807      3803      3802      3805      3808
      3804      3802      3805      3806      3804      3802      3805      3807
      3804      3802      3805      3808      3805      3808      3811      3812
      3805      3808      3811      3813      3805      3808      3811      3814
      3806      3805      3808      3809      3806      3805      3808      3810
      3806      3805      3808      3811      3807      3805      3808      3809
      3807      3805      3808      3810      3807      3805      3808      3811
      3808      3811      3814      3815      3808      3811      3814      3816
      3808      3811      3814      3817      3809      3808      3811      3812
      3809      3808      3811      3813      3809      3808      3811      3814
      3810      3808      3811      3812      3810      3808      3811      3813
      3810      3808      3811      3814      3811      3814      3817      3818
      3811      3814      3817      3819      3811      3814      3817      3820
      3812      3811      3814      3815      3812      3811      3814      3816
      3812      3811      3814      3817      3813      3811      3814      3815
      3813      3811      3814      3816      3813      3811      3814      3817
      3814      3817      3820      3821      3814      3817      3820      3822
      3814      3817      3820      3823      3815      3814      3817      3818
      3815      3814      3817      3819      3815      3814      3817      3820
      3816      3814      3817      3818      3816      3814      3817      3819
      3816      3814      3817      3820      3817      3820      3823      3824
      3817      3820      3823      3825      3817      3820      3823      3826
      3818      3817      3820      3821      3818      3817      3820      3822
      3818      3817      3820      3823      3819      3817      3820      3821
      3819      3817      3820      3822      3819      3817      3820      3823
      3820      3823      3826      3827      3820      3823      3826      3828
      3820      3823      3826      3829      3821      3820      3823      3824
      3821      3820      3823      3825      3821      3820      3823      3826
      3822      3820      3823      3824      3822      3820      3823      3825
      3822      3820      3823      3826      3824      3823      3826      3827
      3824      3823      3826      3828      3824      3823      3826      3829
      3825      3823      3826      3827      3825      3823      3826      3828
      3825      3823      3826      3829      3830      3831      3846      3847
      3830      3831      3846      3848      3830      3831      3846      3852
      3831      3830      3834      3835      3831      3830      3834      3836
      3831      3830      3834      3837      3831      3830      3838      3839
      3831      3830      3838      3840      3831      3830      3838      3841
      3831      3830      3842      3843      3831      3830      3842      3844
      3831      3830      3842      3845      3831      3846      3852      3849
      3832      3831      3830      3834      3832      3831      3830      3838
      3832      3831      3830      3842      3832      3831      3846      3847
      3832      3831      3846      3848      3832      3831      3846      3852
      3833      3831      3830      3834      3833      3831      3830      3838
      3833      3831      3830      3842      3833      3831      3846      3847
      3833      3831      3846      3848      3833      3831      3846      3852
      3834      3830      3831      3846      3834      3830      3838      3839
      3834      3830      3838      3840      3834      3830      3838      3841
      3834      3830      3842      3843      3834      3830      3842      3844
      3834      3830      3842      3845      3835      3834      3830      3838
      3835      3834      3830      3842      3836      3834      3830      3838
      3836      3834      3830      3842      3837      3834      3830      3838
      3837      3834      3830      3842      3838      3830      3831      3846
      3838      3830      3842      3843      3838      3830      3842      3844
      3838      3830      3842      3845      3839      3838      3830      3842
      3840      3838      3830      3842      3841      3838      3830      3842
      3842      3830      3831      3846      3846      3852      3849      3850
      3846      3852      3849      3851      3846      3852      3849      3853
      3847      3846      3852      3849      3848      3846      3852      3849
      3849      3853      3854      3855      3849      3853      3854      3856
      3849      3853      3854      3857      3850      3849      3853      3854
      3851      3849      3853      3854      3852      3849      3853      3854
      3853      3854      3857      3858      3853      3854      3857      3859
      3853      3854      3857      3865      3854      3857      3859      3860
      3854      3857      3865      3866      3854      3857      3865      3867
      3854      3857      3865      3868      3855      3854      3857      3858
      3855      3854      3857      3859      3855      3854      3857      3865
      3856      3854      3857      3858      3856      3854      3857      3859
      3856      3854      3857      3865      3857      3859      3860      3861
      3857      3859      3860      3862      3857      3865      3868      3869
      3858      3857      3859      3860      3858      3857      3865      3866
      3858      3857      3865      3867      3858      3857      3865      3868
      3859      3857      3865      3866      3859      3857      3865      3867
      3859      3857      3865      3868      3859      3860      3862      3863
      3859      3860      3862      3864      3859      3860      3862      3874
      3860      3859      3857      3865      3860      3862      3874      3875
      3860      3862      3874      3876      3860      3862      3874      3877
      3861      3860      3862      3863      3861      3860      3862      3864
      3861      3860      3862      3874      3862      3874      3877      3878
      3862      3874      3877      3879      3862      3874      3877      3880
      3863      3862      3874      3875      3863      3862      3874      3876
      3863      3862      3874      3877      3864      3862      3874      3875
      3864      3862      3874      3876      3864      3862      3874      3877
      3865      3868      3869      3870      3865      3868      3869      3871
      3866      3865      3868      3869      3867      3865      3868      3869
      3868      3869      3871      3872      3868      3869      3871      3873
      3868      3869      3871      3921      3869      3871      3921      3922
      3869      3871      3921      3923      3869      3871      3921      3924
      3870      3869      3871      3872      3870      3869      3871      3873
      3870      3869      3871      3921      3871      3921      3924      3925
      3871      3921      3924      3926      3871      3921      3924      3927
      3872      3871      3921      3922      3872      3871      3921      3923
      3872      3871      3921      3924      3873      3871      3921      3922
      3873      3871      3921      3923      3873      3871      3921      3924
      3874      3877      3880      3881      3874      3877      3880      3882
      3874      3877      3880      3883      3875      3874      3877      3878
      3875      3874      3877      3879      3875      3874      3877      3880
      3876      3874      3877      3878      3876      3874      3877      3879
      3876      3874      3877      3880      3877      3880      3883      3884
      3877      3880      3883      3885      3877      3880      3883      3886
      3878      3877      3880      3881      3878      3877      3880      3882
      3878      3877      3880      3883      3879      3877      3880      3881
      3879      3877      3880      3882      3879      3877      3880      3883
      3880      3883      3886      3887      3880      3883      3886      3888
      3880      3883      3886      3889      3881      3880      3883      3884
      3881      3880      3883      3885      3881      3880      3883      3886
      3882      3880      3883      3884      3882      3880      3883      3885
      3882      3880      3883      3886      3883      3886      3889      3890
      3883      3886      3889      3891      3883      3886      3889      3892
      3884      3883      3886      3887      3884      3883      3886      3888
      3884      3883      3886      3889      3885      3883      3886      3887
      3885      3883      3886      3888      3885      3883      3886      3889
      3886      3889      3892      3893      3886      3889      3892      3894
      3887      3886      3889      3890      3887      3886      3889      3891
      3887      3886      3889      3892      3888      3886      3889      3890
      3888      3886      3889      3891      3888      3886      3889      3892
      3889      3892      3894      3895      3889      3892      3894      3896
      3890      3889      3892      3893      3890      3889      3892      3894
      3891      3889      3892      3893      3891      3889      3892      3894
      3892      3894      3896      3897      3892      3894      3896      3898
      3892      3894      3896      3899      3893      3892      3894      3895
      3893      3892      3894      3896      3894      3896      3899      3900
      3894      3896      3899      3901      3894      3896      3899      3902
      3895      3894      3896      3897      3895      3894      3896      3898
      3895      3894      3896      3899      3896      3899      3902      3903
      3896      3899      3902      3904      3896      3899      3902      3905
      3897      3896      3899      3900      3897      3896      3899      3901
      3897      3896      3899      3902      3898      3896      3899      3900
      3898      3896      3899      3901      3898      3896      3899      3902
      3899      3902      3905      3906      3899      3902      3905      3907
      3899      3902      3905      3908      3900      3899      3902      3903
      3900      3899      3902      3904      3900      3899      3902      3905
      3901      3899      3902      3903      3901      3899      3902      3904
      3901      3899      3902      3905      3902      3905      3908      3909
      3902      3905      3908      3910      3902      3905      3908      3911
      3903      3902      3905      3906      3903      3902      3905      3907
      3903      3902      3905      3908      3904      3902      3905      3906
      3904      3902      3905      3907      3904      3902      3905      3908
      3905      3908      3911      3912      3905      3908      3911      3913
      3905      3908      3911      3914      3906      3905      3908      3909
      3906      3905      3908      3910      3906      3905      3908      3911
      3907      3905      3908      3909      3907      3905      3908      3910
      3907      3905      3908      3911      3908      3911      3914      3915
      3908      3911      3914      3916      3908      3911      3914      3917
      3909      3908      3911      3912      3909      3908      3911      3913
      3909      3908      3911      3914      3910      3908      3911      3912
      3910      3908      3911      3913      3910      3908      3911      3914
      3911      3914      3917      3918      3911      3914      3917      3919
      3911      3914      3917      3920      3912      3911      3914      3915
      3912      3911      3914      3916      3912      3911      3914      3917
      3913      3911      3914      3915      3913      3911      3914      3916
      3913      3911      3914      3917      3915      3914      3917      3918
      3915      3914      3917      3919      3915      3914      3917      3920
      3916      3914      3917      3918      3916      3914      3917      3919
      3916      3914      3917      3920      3921      3924      3927      3928
      3921      3924      3927      3929      3921      3924      3927      3930
      3922      3921      3924      3925      3922      3921      3924      3926
      3922      3921      3924      3927      3923      3921      3924      3925
      3923      3921      3924      3926      3923      3921      3924      3927
      3924      3927      3930      3931      3924      3927      3930      3932
      3924      3927      3930      3933      3925      3924      3927      3928
      3925      3924      3927      3929      3925      3924      3927      3930
      3926      3924      3927      3928      3926      3924      3927      3929
      3926      3924      3927      3930      3927      3930      3933      3934
      3927      3930      3933      3935      3927      3930      3933      3936
      3928      3927      3930      3931      3928      3927      3930      3932
      3928      3927      3930      3933      3929      3927      3930      3931
      3929      3927      3930      3932      3929      3927      3930      3933
      3930      3933      3936      3937      3930      3933      3936      3938
      3930      3933      3936      3939      3931      3930      3933      3934
      3931      3930      3933      3935      3931      3930      3933      3936
      3932      3930      3933      3934      3932      3930      3933      3935
      3932      3930      3933      3936      3933      3936      3939      3940
      3933      3936      3939      3941      3933      3936      3939      3942
      3934      3933      3936      3937      3934      3933      3936      3938
      3934      3933      3936      3939      3935      3933      3936      3937
      3935      3933      3936      3938      3935      3933      3936      3939
      3936      3939      3942      3943      3936      3939      3942      3944
      3936      3939      3942      3945      3937      3936      3939      3940
      3937      3936      3939      3941      3937      3936      3939      3942
      3938      3936      3939      3940      3938      3936      3939      3941
      3938      3936      3939      3942      3939      3942      3945      3946
      3939      3942      3945      3947      3939      3942      3945      3948
      3940      3939      3942      3943      3940      3939      3942      3944
      3940      3939      3942      3945      3941      3939      3942      3943
      3941      3939      3942      3944      3941      3939      3942      3945
      3942      3945      3948      3949      3942      3945      3948      3950
      3942      3945      3948      3951      3943      3942      3945      3946
      3943      3942      3945      3947      3943      3942      3945      3948
      3944      3942      3945      3946      3944      3942      3945      3947
      3944      3942      3945      3948      3945      3948      3951      3952
      3945      3948      3951      3953      3945      3948      3951      3954
      3946      3945      3948      3949      3946      3945      3948      3950
      3946      3945      3948      3951      3947      3945      3948      3949
      3947      3945      3948      3950      3947      3945      3948      3951
      3948      3951      3954      3955      3948      3951      3954      3956
      3948      3951      3954      3957      3949      3948      3951      3952
      3949      3948      3951      3953      3949      3948      3951      3954
      3950      3948      3951      3952      3950      3948      3951      3953
      3950      3948      3951      3954      3951      3954      3957      3958
      3951      3954      3957      3959      3951      3954      3957      3960
      3952      3951      3954      3955      3952      3951      3954      3956
      3952      3951      3954      3957      3953      3951      3954      3955
      3953      3951      3954      3956      3953      3951      3954      3957
      3954      3957      3960      3961      3954      3957      3960      3962
      3954      3957      3960      3963      3955      3954      3957      3958
      3955      3954      3957      3959      3955      3954      3957      3960
      3956      3954      3957      3958      3956      3954      3957      3959
      3956      3954      3957      3960      3958      3957      3960      3961
      3958      3957      3960      3962      3958      3957      3960      3963
      3959      3957      3960      3961      3959      3957      3960      3962
      3959      3957      3960      3963      3964      3965      3980      3981
      3964      3965      3980      3982      3964      3965      3980      3986
      3965      3964      3968      3969      3965      3964      3968      3970
      3965      3964      3968      3971      3965      3964      3972      3973
      3965      3964      3972      3974      3965      3964      3972      3975
      3965      3964      3976      3977      3965      3964      3976      3978
      3965      3964      3976      3979      3965      3980      3986      3983
      3966      3965      3964      3968      3966      3965      3964      3972
      3966      3965      3964      3976      3966      3965      3980      3981
      3966      3965      3980      3982      3966      3965      3980      3986
      3967      3965      3964      3968      3967      3965      3964      3972
      3967      3965      3964      3976      3967      3965      3980      3981
      3967      3965      3980      3982      3967      3965      3980      3986
      3968      3964      3965      3980      3968      3964      3972      3973
      3968      3964      3972      3974      3968      3964      3972      3975
      3968      3964      3976      3977      3968      3964      3976      3978
      3968      3964      3976      3979      3969      3968      3964      3972
      3969      3968      3964      3976      3970      3968      3964      3972
      3970      3968      3964      3976      3971      3968      3964      3972
      3971      3968      3964      3976      3972      3964      3965      3980
      3972      3964      3976      3977      3972      3964      3976      3978
      3972      3964      3976      3979      3973      3972      3964      3976
      3974      3972      3964      3976      3975      3972      3964      3976
      3976      3964      3965      3980      3980      3986      3983      3984
      3980      3986      3983      3985      3980      3986      3983      3987
      3981      3980      3986      3983      3982      3980      3986      3983
      3983      3987      3988      3989      3983      3987      3988      3990
      3983      3987      3988      3991      3984      3983      3987      3988
      3985      3983      3987      3988      3986      3983      3987      3988
      3987      3988      3991      3992      3987      3988      3991      3993
      3987      3988      3991      3999      3988      3991      3993      3994
      3988      3991      3999      4000      3988      3991      3999      4001
      3988      3991      3999      4002      3989      3988      3991      3992
      3989      3988      3991      3993      3989      3988      3991      3999
      3990      3988      3991      3992      3990      3988      3991      3993
      3990      3988      3991      3999      3991      3993      3994      3995
      3991      3993      3994      3996      3991      3999      4002      4003
      3992      3991      3993      3994      3992      3991      3999      4000
      3992      3991      3999      4001      3992      3991      3999      4002
      3993      3991      3999      4000      3993      3991      3999      4001
      3993      3991      3999      4002      3993      3994      3996      3997
      3993      3994      3996      3998      3993      3994      3996      4008
      3994      3993      3991      3999      3994      3996      4008      4009
      3994      3996      4008      4010      3994      3996      4008      4011
      3995      3994      3996      3997      3995      3994      3996      3998
      3995      3994      3996      4008      3996      4008      4011      4012
      3996      4008      4011      4013      3996      4008      4011      4014
      3997      3996      4008      4009      3997      3996      4008      4010
      3997      3996      4008      4011      3998      3996      4008      4009
      3998      3996      4008      4010      3998      3996      4008      4011
      3999      4002      4003      4004      3999      4002      4003      4005
      4000      3999      4002      4003      4001      3999      4002      4003
      4002      4003      4005      4006      4002      4003      4005      4007
      4002      4003      4005      4055      4003      4005      4055      4056
      4003      4005      4055      4057      4003      4005      4055      4058
      4004      4003      4005      4006      4004      4003      4005      4007
      4004      4003      4005      4055      4005      4055      4058      4059
      4005      4055      4058      4060      4005      4055      4058      4061
      4006      4005      4055      4056      4006      4005      4055      4057
      4006      4005      4055      4058      4007      4005      4055      4056
      4007      4005      4055      4057      4007      4005      4055      4058
      4008      4011      4014      4015      4008      4011      4014      4016
      4008      4011      4014      4017      4009      4008      4011      4012
      4009      4008      4011      4013      4009      4008      4011      4014
      4010      4008      4011      4012      4010      4008      4011      4013
      4010      4008      4011      4014      4011      4014      4017      4018
      4011      4014      4017      4019      4011      4014      4017      4020
      4012      4011      4014      4015      4012      4011      4014      4016
      4012      4011      4014      4017      4013      4011      4014      4015
      4013      4011      4014      4016      4013      4011      4014      4017
      4014      4017      4020      4021      4014      4017      4020      4022
      4014      4017      4020      4023      4015      4014      4017      4018
      4015      4014      4017      4019      4015      4014      4017      4020
      4016      4014      4017      4018      4016      4014      4017      4019
      4016      4014      4017      4020      4017      4020      4023      4024
      4017      4020      4023      4025      4017      4020      4023      4026
      4018      4017      4020      4021      4018      4017      4020      4022
      4018      4017      4020      4023      4019      4017      4020      4021
      4019      4017      4020      4022      4019      4017      4020      4023
      4020      4023      4026      4027      4020      4023      4026      4028
      4021      4020      4023      4024      4021      4020      4023      4025
      4021      4020      4023      4026      4022      4020      4023      4024
      4022      4020      4023      4025      4022      4020      4023      4026
      4023      4026      4028      4029      4023      4026      4028      4030
      4024      4023      4026      4027      4024      4023      4026      4028
      4025      4023      4026      4027      4025      4023      4026      4028
      4026      4028      4030      4031      4026      4028      4030      4032
      4026      4028      4030      4033      4027      4026      4028      4029
      4027      4026      4028      4030      4028      4030      4033      4034
      4028      4030      4033      4035      4028      4030      4033      4036
      4029      4028      4030      4031      4029      4028      4030      4032
      4029      4028      4030      4033      4030      4033      4036      4037
      4030      4033      4036      4038      4030      4033      4036      4039
      4031      4030      4033      4034      4031      4030      4033      4035
      4031      4030      4033      4036      4032      4030      4033      4034
      4032      4030      4033      4035      4032      4030      4033      4036
      4033      4036      4039      4040      4033      4036      4039      4041
      4033      4036      4039      4042      4034      4033      4036      4037
      4034      4033      4036      4038      4034      4033      4036      4039
      4035      4033      4036      4037      4035      4033      4036      4038
      4035      4033      4036      4039      4036      4039      4042      4043
      4036      4039      4042      4044      4036      4039      4042      4045
      4037      4036      4039      4040      4037      4036      4039      4041
      4037      4036      4039      4042      4038      4036      4039      4040
      4038      4036      4039      4041      4038      4036      4039      4042
      4039      4042      4045      4046      4039      4042      4045      4047
      4039      4042      4045      4048      4040      4039      4042      4043
      4040      4039      4042      4044      4040      4039      4042      4045
      4041      4039      4042      4043      4041      4039      4042      4044
      4041      4039      4042      4045      4042      4045      4048      4049
      4042      4045      4048      4050      4042      4045      4048      4051
      4043      4042      4045      4046      4043      4042      4045      4047
      4043      4042      4045      4048      4044      4042      4045      4046
      4044      4042      4045      4047      4044      4042      4045      4048
      4045      4048      4051      4052      4045      4048      4051      4053
      4045      4048      4051      4054      4046      4045      4048      4049
      4046      4045      4048      4050      4046      4045      4048      4051
      4047      4045      4048      4049      4047      4045      4048      4050
      4047      4045      4048      4051      4049      4048      4051      4052
      4049      4048      4051      4053      4049      4048      4051      4054
      4050      4048      4051      4052      4050      4048      4051      4053
      4050      4048      4051      4054      4055      4058      4061      4062
      4055      4058      4061      4063      4055      4058      4061      4064
      4056      4055      4058      4059      4056      4055      4058      4060
      4056      4055      4058      4061      4057      4055      4058      4059
      4057      4055      4058      4060      4057      4055      4058      4061
      4058      4061      4064      4065      4058      4061      4064      4066
      4058      4061      4064      4067      4059      4058      4061      4062
      4059      4058      4061      4063      4059      4058      4061      4064
      4060      4058      4061      4062      4060      4058      4061      4063
      4060      4058      4061      4064      4061      4064      4067      4068
      4061      4064      4067      4069      4061      4064      4067      4070
      4062      4061      4064      4065      4062      4061      4064      4066
      4062      4061      4064      4067      4063      4061      4064      4065
      4063      4061      4064      4066      4063      4061      4064      4067
      4064      4067      4070      4071      4064      4067      4070      4072
      4064      4067      4070      4073      4065      4064      4067      4068
      4065      4064      4067      4069      4065      4064      4067      4070
      4066      4064      4067      4068      4066      4064      4067      4069
      4066      4064      4067      4070      4067      4070      4073      4074
      4067      4070      4073      4075      4067      4070      4073      4076
      4068      4067      4070      4071      4068      4067      4070      4072
      4068      4067      4070      4073      4069      4067      4070      4071
      4069      4067      4070      4072      4069      4067      4070      4073
      4070      4073      4076      4077      4070      4073      4076      4078
      4070      4073      4076      4079      4071      4070      4073      4074
      4071      4070      4073      4075      4071      4070      4073      4076
      4072      4070      4073      4074      4072      4070      4073      4075
      4072      4070      4073      4076      4073      4076      4079      4080
      4073      4076      4079      4081      4073      4076      4079      4082
      4074      4073      4076      4077      4074      4073      4076      4078
      4074      4073      4076      4079      4075      4073      4076      4077
      4075      4073      4076      4078      4075      4073      4076      4079
      4076      4079      4082      4083      4076      4079      4082      4084
      4076      4079      4082      4085      4077      4076      4079      4080
      4077      4076      4079      4081      4077      4076      4079      4082
      4078      4076      4079      4080      4078      4076      4079      4081
      4078      4076      4079      4082      4079      4082      4085      4086
      4079      4082      4085      4087      4079      4082      4085      4088
      4080      4079      4082      4083      4080      4079      4082      4084
      4080      4079      4082      4085      4081      4079      4082      4083
      4081      4079      4082      4084      4081      4079      4082      4085
      4082      4085      4088      4089      4082      4085      4088      4090
      4082      4085      4088      4091      4083      4082      4085      4086
      4083      4082      4085      4087      4083      4082      4085      4088
      4084      4082      4085      4086      4084      4082      4085      4087
      4084      4082      4085      4088      4085      4088      4091      4092
      4085      4088      4091      4093      4085      4088      4091      4094
      4086      4085      4088      4089      4086      4085      4088      4090
      4086      4085      4088      4091      4087      4085      4088      4089
      4087      4085      4088      4090      4087      4085      4088      4091
      4088      4091      4094      4095      4088      4091      4094      4096
      4088      4091      4094      4097      4089      4088      4091      4092
      4089      4088      4091      4093      4089      4088      4091      4094
      4090      4088      4091      4092      4090      4088      4091      4093
      4090      4088      4091      4094      4092      4091      4094      4095
      4092      4091      4094      4096      4092      4091      4094      4097
      4093      4091      4094      4095      4093      4091      4094      4096
      4093      4091      4094      4097      4098      4102      4104      4105
      4098      4102      4104      4106      4098      4102      4107      4108
      4098      4102      4107      4109      4098      4102      4107      4113
      4099      4098      4102      4103      4099      4098      4102      4104
      4099      4098      4102      4107      4100      4098      4102      4103
      4100      4098      4102      4104      4100      4098      4102      4107
      4101      4098      4102      4103      4101      4098      4102      4104
      4101      4098      4102      4107      4102      4107      4113      4110
      4103      4102      4104      4105      4103      4102      4104      4106
      4103      4102      4107      4108      4103      4102      4107      4109
      4103      4102      4107      4113      4104      4102      4107      4108
      4104      4102      4107      4109      4104      4102      4107      4113
      4105      4104      4102      4107      4106      4104      4102      4107
      4107      4113      4110      4111      4107      4113      4110      4112
      4107      4113      4110      4114      4108      4107      4113      4110
      4109      4107      4113      4110      4110      4114      4115      4116
      4110      4114      4115      4117      4110      4114      4115      4118
      4111      4110      4114      4115      4112      4110      4114      4115
      4113      4110      4114      4115      4114      4115      4118      4119
      4114      4115      4118      4120      4114      4115      4118      4126
      4115      4118      4120      4121      4115      4118      4126      4127
      4115      4118      4126      4128      4115      4118      4126      4129
      4116      4115      4118      4119      4116      4115      4118      4120
      4116      4115      4118      4126      4117      4115      4118      4119
      4117      4115      4118      4120      4117      4115      4118      4126
      4118      4120      4121      4122      4118      4120      4121      4123
      4118      4126      4129      4130      4119      4118      4120      4121
      4119      4118      4126      4127      4119      4118      4126      4128
      4119      4118      4126      4129      4120      4118      4126      4127
      4120      4118      4126      4128      4120      4118      4126      4129
      4120      4121      4123      4124      4120      4121      4123      4125
      4120      4121      4123      4135      4121      4120      4118      4126
      4121      4123      4135      4136      4121      4123      4135      4137
      4121      4123      4135      4138      4122      4121      4123      4124
      4122      4121      4123      4125      4122      4121      4123      4135
      4123      4135      4138      4139      4123      4135      4138      4140
      4123      4135      4138      4141      4124      4123      4135      4136
      4124      4123      4135      4137      4124      4123      4135      4138
      4125      4123      4135      4136      4125      4123      4135      4137
      4125      4123      4135      4138      4126      4129      4130      4131
      4126      4129      4130      4132      4127      4126      4129      4130
      4128      4126      4129      4130      4129      4130      4132      4133
      4129      4130      4132      4134      4129      4130      4132      4182
      4130      4132      4182      4183      4130      4132      4182      4184
      4130      4132      4182      4185      4131      4130      4132      4133
      4131      4130      4132      4134      4131      4130      4132      4182
      4132      4182      4185      4186      4132      4182      4185      4187
      4132      4182      4185      4188      4133      4132      4182      4183
      4133      4132      4182      4184      4133      4132      4182      4185
      4134      4132      4182      4183      4134      4132      4182      4184
      4134      4132      4182      4185      4135      4138      4141      4142
      4135      4138      4141      4143      4135      4138      4141      4144
      4136      4135      4138      4139      4136      4135      4138      4140
      4136      4135      4138      4141      4137      4135      4138      4139
      4137      4135      4138      4140      4137      4135      4138      4141
      4138      4141      4144      4145      4138      4141      4144      4146
      4138      4141      4144      4147      4139      4138      4141      4142
      4139      4138      4141      4143      4139      4138      4141      4144
      4140      4138      4141      4142      4140      4138      4141      4143
      4140      4138      4141      4144      4141      4144      4147      4148
      4141      4144      4147      4149      4141      4144      4147      4150
      4142      4141      4144      4145      4142      4141      4144      4146
      4142      4141      4144      4147      4143      4141      4144      4145
      4143      4141      4144      4146      4143      4141      4144      4147
      4144      4147      4150      4151      4144      4147      4150      4152
      4144      4147      4150      4153      4145      4144      4147      4148
      4145      4144      4147      4149      4145      4144      4147      4150
      4146      4144      4147      4148      4146      4144      4147      4149
      4146      4144      4147      4150      4147      4150      4153      4154
      4147      4150      4153      4155      4148      4147      4150      4151
      4148      4147      4150      4152      4148      4147      4150      4153
      4149      4147      4150      4151      4149      4147      4150      4152
      4149      4147      4150      4153      4150      4153      4155      4156
      4150      4153      4155      4157      4151      4150      4153      4154
      4151      4150      4153      4155      4152      4150      4153      4154
      4152      4150      4153      4155      4153      4155      4157      4158
      4153      4155      4157      4159      4153      4155      4157      4160
      4154      4153      4155      4156      4154      4153      4155      4157
      4155      4157      4160      4161      4155      4157      4160      4162
      4155      4157      4160      4163      4156      4155      4157      4158
      4156      4155      4157      4159      4156      4155      4157      4160
      4157      4160      4163      4164      4157      4160      4163      4165
      4157      4160      4163      4166      4158      4157      4160      4161
      4158      4157      4160      4162      4158      4157      4160      4163
      4159      4157      4160      4161      4159      4157      4160      4162
      4159      4157      4160      4163      4160      4163      4166      4167
      4160      4163      4166      4168      4160      4163      4166      4169
      4161      4160      4163      4164      4161      4160      4163      4165
      4161      4160      4163      4166      4162      4160      4163      4164
      4162      4160      4163      4165      4162      4160      4163      4166
      4163      4166      4169      4170      4163      4166      4169      4171
      4163      4166      4169      4172      4164      4163      4166      4167
      4164      4163      4166      4168      4164      4163      4166      4169
      4165      4163      4166      4167      4165      4163      4166      4168
      4165      4163      4166      4169      4166      4169      4172      4173
      4166      4169      4172      4174      4166      4169      4172      4175
      4167      4166      4169      4170      4167      4166      4169      4171
      4167      4166      4169      4172      4168      4166      4169      4170
      4168      4166      4169      4171      4168      4166      4169      4172
      4169      4172      4175      4176      4169      4172      4175      4177
      4169      4172      4175      4178      4170      4169      4172      4173
      4170      4169      4172      4174      4170      4169      4172      4175
      4171      4169      4172      4173      4171      4169      4172      4174
      4171      4169      4172      4175      4172      4175      4178      4179
      4172      4175      4178      4180      4172      4175      4178      4181
      4173      4172      4175      4176      4173      4172      4175      4177
      4173      4172      4175      4178      4174      4172      4175      4176
      4174      4172      4175      4177      4174      4172      4175      4178
      4176      4175      4178      4179      4176      4175      4178      4180
      4176      4175      4178      4181      4177      4175      4178      4179
      4177      4175      4178      4180      4177      4175      4178      4181
      4182      4185      4188      4189      4182      4185      4188      4190
      4182      4185      4188      4191      4183      4182      4185      4186
      4183      4182      4185      4187      4183      4182      4185      4188
      4184      4182      4185      4186      4184      4182      4185      4187
      4184      4182      4185      4188      4185      4188      4191      4192
      4185      4188      4191      4193      4185      4188      4191      4194
      4186      4185      4188      4189      4186      4185      4188      4190
      4186      4185      4188      4191      4187      4185      4188      4189
      4187      4185      4188      4190      4187      4185      4188      4191
      4188      4191      4194      4195      4188      4191      4194      4196
      4188      4191      4194      4197      4189      4188      4191      4192
      4189      4188      4191      4193      4189      4188      4191      4194
      4190      4188      4191      4192      4190      4188      4191      4193
      4190      4188      4191      4194      4191      4194      4197      4198
      4191      4194      4197      4199      4191      4194      4197      4200
      4192      4191      4194      4195      4192      4191      4194      4196
      4192      4191      4194      4197      4193      4191      4194      4195
      4193      4191      4194      4196      4193      4191      4194      4197
      4194      4197      4200      4201      4194      4197      4200      4202
      4194      4197      4200      4203      4195      4194      4197      4198
      4195      4194      4197      4199      4195      4194      4197      4200
      4196      4194      4197      4198      4196      4194      4197      4199
      4196      4194      4197      4200      4197      4200      4203      4204
      4197      4200      4203      4205      4197      4200      4203      4206
      4198      4197      4200      4201      4198      4197      4200      4202
      4198      4197      4200      4203      4199      4197      4200      4201
      4199      4197      4200      4202      4199      4197      4200      4203
      4200      4203      4206      4207      4200      4203      4206      4208
      4200      4203      4206      4209      4201      4200      4203      4204
      4201      4200      4203      4205      4201      4200      4203      4206
      4202      4200      4203      4204      4202      4200      4203      4205
      4202      4200      4203      4206      4203      4206      4209      4210
      4203      4206      4209      4211      4203      4206      4209      4212
      4204      4203      4206      4207      4204      4203      4206      4208
      4204      4203      4206      4209      4205      4203      4206      4207
      4205      4203      4206      4208      4205      4203      4206      4209
      4206      4209      4212      4213      4206      4209      4212      4214
      4206      4209      4212      4215      4207      4206      4209      4210
      4207      4206      4209      4211      4207      4206      4209      4212
      4208      4206      4209      4210      4208      4206      4209      4211
      4208      4206      4209      4212      4209      4212      4215      4216
      4209      4212      4215      4217      4209      4212      4215      4218
      4210      4209      4212      4213      4210      4209      4212      4214
      4210      4209      4212      4215      4211      4209      4212      4213
      4211      4209      4212      4214      4211      4209      4212      4215
      4212      4215      4218      4219      4212      4215      4218      4220
      4212      4215      4218      4221      4213      4212      4215      4216
      4213      4212      4215      4217      4213      4212      4215      4218
      4214      4212      4215      4216      4214      4212      4215      4217
      4214      4212      4215      4218      4215      4218      4221      4222
      4215      4218      4221      4223      4215      4218      4221      4224
      4216      4215      4218      4219      4216      4215      4218      4220
      4216      4215      4218      4221      4217      4215      4218      4219
      4217      4215      4218      4220      4217      4215      4218      4221
      4219      4218      4221      4222      4219      4218      4221      4223
      4219      4218      4221      4224      4220      4218      4221      4222
      4220      4218      4221      4223      4220      4218      4221      4224
      4225      4226      4241      4242      4225      4226      4241      4243
      4225      4226      4241      4247      4226      4225      4229      4230
      4226      4225      4229      4231      4226      4225      4229      4232
      4226      4225      4233      4234      4226      4225      4233      4235
      4226      4225      4233      4236      4226      4225      4237      4238
      4226      4225      4237      4239      4226      4225      4237      4240
      4226      4241      4247      4244      4227      4226      4225      4229
      4227      4226      4225      4233      4227      4226      4225      4237
      4227      4226      4241      4242      4227      4226      4241      4243
      4227      4226      4241      4247      4228      4226      4225      4229
      4228      4226      4225      4233      4228      4226      4225      4237
      4228      4226      4241      4242      4228      4226      4241      4243
      4228      4226      4241      4247      4229      4225      4226      4241
      4229      4225      4233      4234      4229      4225      4233      4235
      4229      4225      4233      4236      4229      4225      4237      4238
      4229      4225      4237      4239      4229      4225      4237      4240
      4230      4229      4225      4233      4230      4229      4225      4237
      4231      4229      4225      4233      4231      4229      4225      4237
      4232      4229      4225      4233      4232      4229      4225      4237
      4233      4225      4226      4241      4233      4225      4237      4238
      4233      4225      4237      4239      4233      4225      4237      4240
      4234      4233      4225      4237      4235      4233      4225      4237
      4236      4233      4225      4237      4237      4225      4226      4241
      4241      4247      4244      4245      4241      4247      4244      4246
      4241      4247      4244      4248      4242      4241      4247      4244
      4243      4241      4247      4244      4244      4248      4249      4250
      4244      4248      4249      4251      4244      4248      4249      4252
      4245      4244      4248      4249      4246      4244      4248      4249
      4247      4244      4248      4249      4248      4249      4252      4253
      4248      4249      4252      4254      4248      4249      4252      4260
      4249      4252      4254      4255      4249      4252      4260      4261
      4249      4252      4260      4262      4249      4252      4260      4263
      4250      4249      4252      4253      4250      4249      4252      4254
      4250      4249      4252      4260      4251      4249      4252      4253
      4251      4249      4252      4254      4251      4249      4252      4260
      4252      4254      4255      4256      4252      4254      4255      4257
      4252      4260      4263      4264      4253      4252      4254      4255
      4253      4252      4260      4261      4253      4252      4260      4262
      4253      4252      4260      4263      4254      4252      4260      4261
      4254      4252      4260      4262      4254      4252      4260      4263
      4254      4255      4257      4258      4254      4255      4257      4259
      4254      4255      4257      4269      4255      4254      4252      4260
      4255      4257      4269      4270      4255      4257      4269      4271
      4255      4257      4269      4272      4256      4255      4257      4258
      4256      4255      4257      4259      4256      4255      4257      4269
      4257      4269      4272      4273      4257      4269      4272      4274
      4257      4269      4272      4275      4258      4257      4269      4270
      4258      4257      4269      4271      4258      4257      4269      4272
      4259      4257      4269      4270      4259      4257      4269      4271
      4259      4257      4269      4272      4260      4263      4264      4265
      4260      4263      4264      4266      4261      4260      4263      4264
      4262      4260      4263      4264      4263      4264      4266      4267
      4263      4264      4266      4268      4263      4264      4266      4316
      4264      4266      4316      4317      4264      4266      4316      4318
      4264      4266      4316      4319      4265      4264      4266      4267
      4265      4264      4266      4268      4265      4264      4266      4316
      4266      4316      4319      4320      4266      4316      4319      4321
      4266      4316      4319      4322      4267      4266      4316      4317
      4267      4266      4316      4318      4267      4266      4316      4319
      4268      4266      4316      4317      4268      4266      4316      4318
      4268      4266      4316      4319      4269      4272      4275      4276
      4269      4272      4275      4277      4269      4272      4275      4278
      4270      4269      4272      4273      4270      4269      4272      4274
      4270      4269      4272      4275      4271      4269      4272      4273
      4271      4269      4272      4274      4271      4269      4272      4275
      4272      4275      4278      4279      4272      4275      4278      4280
      4272      4275      4278      4281      4273      4272      4275      4276
      4273      4272      4275      4277      4273      4272      4275      4278
      4274      4272      4275      4276      4274      4272      4275      4277
      4274      4272      4275      4278      4275      4278      4281      4282
      4275      4278      4281      4283      4275      4278      4281      4284
      4276      4275      4278      4279      4276      4275      4278      4280
      4276      4275      4278      4281      4277      4275      4278      4279
      4277      4275      4278      4280      4277      4275      4278      4281
      4278      4281      4284      4285      4278      4281      4284      4286
      4278      4281      4284      4287      4279      4278      4281      4282
      4279      4278      4281      4283      4279      4278      4281      4284
      4280      4278      4281      4282      4280      4278      4281      4283
      4280      4278      4281      4284      4281      4284      4287      4288
      4281      4284      4287      4289      4282      4281      4284      4285
      4282      4281      4284      4286      4282      4281      4284      4287
      4283      4281      4284      4285      4283      4281      4284      4286
      4283      4281      4284      4287      4284      4287      4289      4290
      4284      4287      4289      4291      4285      4284      4287      4288
      4285      4284      4287      4289      4286      4284      4287      4288
      4286      4284      4287      4289      4287      4289      4291      4292
      4287      4289      4291      4293      4287      4289      4291      4294
      4288      4287      4289      4290      4288      4287      4289      4291
      4289      4291      4294      4295      4289      4291      4294      4296
      4289      4291      4294      4297      4290      4289      4291      4292
      4290      4289      4291      4293      4290      4289      4291      4294
      4291      4294      4297      4298      4291      4294      4297      4299
      4291      4294      4297      4300      4292      4291      4294      4295
      4292      4291      4294      4296      4292      4291      4294      4297
      4293      4291      4294      4295      4293      4291      4294      4296
      4293      4291      4294      4297      4294      4297      4300      4301
      4294      4297      4300      4302      4294      4297      4300      4303
      4295      4294      4297      4298      4295      4294      4297      4299
      4295      4294      4297      4300      4296      4294      4297      4298
      4296      4294      4297      4299      4296      4294      4297      4300
      4297      4300      4303      4304      4297      4300      4303      4305
      4297      4300      4303      4306      4298      4297      4300      4301
      4298      4297      4300      4302      4298      4297      4300      4303
      4299      4297      4300      4301      4299      4297      4300      4302
      4299      4297      4300      4303      4300      4303      4306      4307
      4300      4303      4306      4308      4300      4303      4306      4309
      4301      4300      4303      4304      4301      4300      4303      4305
      4301      4300      4303      4306      4302      4300      4303      4304
      4302      4300      4303      4305      4302      4300      4303      4306
      4303      4306      4309      4310      4303      4306      4309      4311
      4303      4306      4309      4312      4304      4303      4306      4307
      4304      4303      4306      4308      4304      4303      4306      4309
      4305      4303      4306      4307      4305      4303      4306      4308
      4305      4303      4306      4309      4306      4309      4312      4313
      4306      4309      4312      4314      4306      4309      4312      4315
      4307      4306      4309      4310      4307      4306      4309      4311
      4307      4306      4309      4312      4308      4306      4309      4310
      4308      4306      4309      4311      4308      4306      4309      4312
      4310      4309      4312      4313      4310      4309      4312      4314
      4310      4309      4312      4315      4311      4309      4312      4313
      4311      4309      4312      4314      4311      4309      4312      4315
      4316      4319      4322      4323      4316      4319      4322      4324
      4316      4319      4322      4325      4317      4316      4319      4320
      4317      4316      4319      4321      4317      4316      4319      4322
      4318      4316      4319      4320      4318      4316      4319      4321
      4318      4316      4319      4322      4319      4322      4325      4326
      4319      4322      4325      4327      4319      4322      4325      4328
      4320      4319      4322      4323      4320      4319      4322      4324
      4320      4319      4322      4325      4321      4319      4322      4323
      4321      4319      4322      4324      4321      4319      4322      4325
      4322      4325      4328      4329      4322      4325      4328      4330
      4322      4325      4328      4331      4323      4322      4325      4326
      4323      4322      4325      4327      4323      4322      4325      4328
      4324      4322      4325      4326      4324      4322      4325      4327
      4324      4322      4325      4328      4325      4328      4331      4332
      4325      4328      4331      4333      4325      4328      4331      4334
      4326      4325      4328      4329      4326      4325      4328      4330
      4326      4325      4328      4331      4327      4325      4328      4329
      4327      4325      4328      4330      4327      4325      4328      4331
      4328      4331      4334      4335      4328      4331      4334      4336
      4328      4331      4334      4337      4329      4328      4331      4332
      4329      4328      4331      4333      4329      4328      4331      4334
      4330      4328      4331      4332      4330      4328      4331      4333
      4330      4328      4331      4334      4331      4334      4337      4338
      4331      4334      4337      4339      4331      4334      4337      4340
      4332      4331      4334      4335      4332      4331      4334      4336
      4332      4331      4334      4337      4333      4331      4334      4335
      4333      4331      4334      4336      4333      4331      4334      4337
      4334      4337      4340      4341      4334      4337      4340      4342
      4334      4337      4340      4343      4335      4334      4337      4338
      4335      4334      4337      4339      4335      4334      4337      4340
      4336      4334      4337      4338      4336      4334      4337      4339
      4336      4334      4337      4340      4337      4340      4343      4344
      4337      4340      4343      4345      4337      4340      4343      4346
      4338      4337      4340      4341      4338      4337      4340      4342
      4338      4337      4340      4343      4339      4337      4340      4341
      4339      4337      4340      4342      4339      4337      4340      4343
      4340      4343      4346      4347      4340      4343      4346      4348
      4340      4343      4346      4349      4341      4340      4343      4344
      4341      4340      4343      4345      4341      4340      4343      4346
      4342      4340      4343      4344      4342      4340      4343      4345
      4342      4340      4343      4346      4343      4346      4349      4350
      4343      4346      4349      4351      4343      4346      4349      4352
      4344      4343      4346      4347      4344      4343      4346      4348
      4344      4343      4346      4349      4345      4343      4346      4347
      4345      4343      4346      4348      4345      4343      4346      4349
      4346      4349      4352      4353      4346      4349      4352      4354
      4346      4349      4352      4355      4347      4346      4349      4350
      4347      4346      4349      4351      4347      4346      4349      4352
      4348      4346      4349      4350      4348      4346      4349      4351
      4348      4346      4349      4352      4349      4352      4355      4356
      4349      4352      4355      4357      4349      4352      4355      4358
      4350      4349      4352      4353      4350      4349      4352      4354
      4350      4349      4352      4355      4351      4349      4352      4353
      4351      4349      4352      4354      4351      4349      4352      4355
      4353      4352      4355      4356      4353      4352      4355      4357
      4353      4352      4355      4358      4354      4352      4355      4356
      4354      4352      4355      4357      4354      4352      4355      4358
      4359      4360      4375      4376      4359      4360      4375      4377
      4359      4360      4375      4381      4360      4359      4363      4364
      4360      4359      4363      4365      4360      4359      4363      4366
      4360      4359      4367      4368      4360      4359      4367      4369
      4360      4359      4367      4370      4360      4359      4371      4372
      4360      4359      4371      4373      4360      4359      4371      4374
      4360      4375      4381      4378      4361      4360      4359      4363
      4361      4360      4359      4367      4361      4360      4359      4371
      4361      4360      4375      4376      4361      4360      4375      4377
      4361      4360      4375      4381      4362      4360      4359      4363
      4362      4360      4359      4367      4362      4360      4359      4371
      4362      4360      4375      4376      4362      4360      4375      4377
      4362      4360      4375      4381      4363      4359      4360      4375
      4363      4359      4367      4368      4363      4359      4367      4369
      4363      4359      4367      4370      4363      4359      4371      4372
      4363      4359      4371      4373      4363      4359      4371      4374
      4364      4363      4359      4367      4364      4363      4359      4371
      4365      4363      4359      4367      4365      4363      4359      4371
      4366      4363      4359      4367      4366      4363      4359      4371
      4367      4359      4360      4375      4367      4359      4371      4372
      4367      4359      4371      4373      4367      4359      4371      4374
      4368      4367      4359      4371      4369      4367      4359      4371
      4370      4367      4359      4371      4371      4359      4360      4375
      4375      4381      4378      4379      4375      4381      4378      4380
      4375      4381      4378      4382      4376      4375      4381      4378
      4377      4375      4381      4378      4378      4382      4383      4384
      4378      4382      4383      4385      4378      4382      4383      4386
      4379      4378      4382      4383      4380      4378      4382      4383
      4381      4378      4382      4383      4382      4383      4386      4387
      4382      4383      4386      4388      4382      4383      4386      4394
      4383      4386      4388      4389      4383      4386      4394      4395
      4383      4386      4394      4396      4383      4386      4394      4397
      4384      4383      4386      4387      4384      4383      4386      4388
      4384      4383      4386      4394      4385      4383      4386      4387
      4385      4383      4386      4388      4385      4383      4386      4394
      4386      4388      4389      4390      4386      4388      4389      4391
      4386      4394      4397      4398      4387      4386      4388      4389
      4387      4386      4394      4395      4387      4386      4394      4396
      4387      4386      4394      4397      4388      4386      4394      4395
      4388      4386      4394      4396      4388      4386      4394      4397
      4388      4389      4391      4392      4388      4389      4391      4393
      4388      4389      4391      4403      4389      4388      4386      4394
      4389      4391      4403      4404      4389      4391      4403      4405
      4389      4391      4403      4406      4390      4389      4391      4392
      4390      4389      4391      4393      4390      4389      4391      4403
      4391      4403      4406      4407      4391      4403      4406      4408
      4391      4403      4406      4409      4392      4391      4403      4404
      4392      4391      4403      4405      4392      4391      4403      4406
      4393      4391      4403      4404      4393      4391      4403      4405
      4393      4391      4403      4406      4394      4397      4398      4399
      4394      4397      4398      4400      4395      4394      4397      4398
      4396      4394      4397      4398      4397      4398      4400      4401
      4397      4398      4400      4402      4397      4398      4400      4450
      4398      4400      4450      4451      4398      4400      4450      4452
      4398      4400      4450      4453      4399      4398      4400      4401
      4399      4398      4400      4402      4399      4398      4400      4450
      4400      4450      4453      4454      4400      4450      4453      4455
      4400      4450      4453      4456      4401      4400      4450      4451
      4401      4400      4450      4452      4401      4400      4450      4453
      4402      4400      4450      4451      4402      4400      4450      4452
      4402      4400      4450      4453      4403      4406      4409      4410
      4403      4406      4409      4411      4403      4406      4409      4412
      4404      4403      4406      4407      4404      4403      4406      4408
      4404      4403      4406      4409      4405      4403      4406      4407
      4405      4403      4406      4408      4405      4403      4406      4409
      4406      4409      4412      4413      4406      4409      4412      4414
      4406      4409      4412      4415      4407      4406      4409      4410
      4407      4406      4409      4411      4407      4406      4409      4412
      4408      4406      4409      4410      4408      4406      4409      4411
      4408      4406      4409      4412      4409      4412      4415      4416
      4409      4412      4415      4417      4409      4412      4415      4418
      4410      4409      4412      4413      4410      4409      4412      4414
      4410      4409      4412      4415      4411      4409      4412      4413
      4411      4409      4412      4414      4411      4409      4412      4415
      4412      4415      4418      4419      4412      4415      4418      4420
      4412      4415      4418      4421      4413      4412      4415      4416
      4413      4412      4415      4417      4413      4412      4415      4418
      4414      4412      4415      4416      4414      4412      4415      4417
      4414      4412      4415      4418      4415      4418      4421      4422
      4415      4418      4421      4423      4416      4415      4418      4419
      4416      4415      4418      4420      4416      4415      4418      4421
      4417      4415      4418      4419      4417      4415      4418      4420
      4417      4415      4418      4421      4418      4421      4423      4424
      4418      4421      4423      4425      4419      4418      4421      4422
      4419      4418      4421      4423      4420      4418      4421      4422
      4420      4418      4421      4423      4421      4423      4425      4426
      4421      4423      4425      4427      4421      4423      4425      4428
      4422      4421      4423      4424      4422      4421      4423      4425
      4423      4425      4428      4429      4423      4425      4428      4430
      4423      4425      4428      4431      4424      4423      4425      4426
      4424      4423      4425      4427      4424      4423      4425      4428
      4425      4428      4431      4432      4425      4428      4431      4433
      4425      4428      4431      4434      4426      4425      4428      4429
      4426      4425      4428      4430      4426      4425      4428      4431
      4427      4425      4428      4429      4427      4425      4428      4430
      4427      4425      4428      4431      4428      4431      4434      4435
      4428      4431      4434      4436      4428      4431      4434      4437
      4429      4428      4431      4432      4429      4428      4431      4433
      4429      4428      4431      4434      4430      4428      4431      4432
      4430      4428      4431      4433      4430      4428      4431      4434
      4431      4434      4437      4438      4431      4434      4437      4439
      4431      4434      4437      4440      4432      4431      4434      4435
      4432      4431      4434      4436      4432      4431      4434      4437
      4433      4431      4434      4435      4433      4431      4434      4436
      4433      4431      4434      4437      4434      4437      4440      4441
      4434      4437      4440      4442      4434      4437      4440      4443
      4435      4434      4437      4438      4435      4434      4437      4439
      4435      4434      4437      4440      4436      4434      4437      4438
      4436      4434      4437      4439      4436      4434      4437      4440
      4437      4440      4443      4444      4437      4440      4443      4445
      4437      4440      4443      4446      4438      4437      4440      4441
      4438      4437      4440      4442      4438      4437      4440      4443
      4439      4437      4440      4441      4439      4437      4440      4442
      4439      4437      4440      4443      4440      4443      4446      4447
      4440      4443      4446      4448      4440      4443      4446      4449
      4441      4440      4443      4444      4441      4440      4443      4445
      4441      4440      4443      4446      4442      4440      4443      4444
      4442      4440      4443      4445      4442      4440      4443      4446
      4444      4443      4446      4447      4444      4443      4446      4448
      4444      4443      4446      4449      4445      4443      4446      4447
      4445      4443      4446      4448      4445      4443      4446      4449
      4450      4453      4456      4457      4450      4453      4456      4458
      4450      4453      4456      4459      4451      4450      4453      4454
      4451      4450      4453      4455      4451      4450      4453      4456
      4452      4450      4453      4454      4452      4450      4453      4455
      4452      4450      4453      4456      4453      4456      4459      4460
      4453      4456      4459      4461      4453      4456      4459      4462
      4454      4453      4456      4457      4454      4453      4456      4458
      4454      4453      4456      4459      4455      4453      4456      4457
      4455      4453      4456      4458      4455      4453      4456      4459
      4456      4459      4462      4463      4456      4459      4462      4464
      4456      4459      4462      4465      4457      4456      4459      4460
      4457      4456      4459      4461      4457      4456      4459      4462
      4458      4456      4459      4460      4458      4456      4459      4461
      4458      4456      4459      4462      4459      4462      4465      4466
      4459      4462      4465      4467      4459      4462      4465      4468
      4460      4459      4462      4463      4460      4459      4462      4464
      4460      4459      4462      4465      4461      4459      4462      4463
      4461      4459      4462      4464      4461      4459      4462      4465
      4462      4465      4468      4469      4462      4465      4468      4470
      4462      4465      4468      4471      4463      4462      4465      4466
      4463      4462      4465      4467      4463      4462      4465      4468
      4464      4462      4465      4466      4464      4462      4465      4467
      4464      4462      4465      4468      4465      4468      4471      4472
      4465      4468      4471      4473      4465      4468      4471      4474
      4466      4465      4468      4469      4466      4465      4468      4470
      4466      4465      4468      4471      4467      4465      4468      4469
      4467      4465      4468      4470      4467      4465      4468      4471
      4468      4471      4474      4475      4468      4471      4474      4476
      4468      4471      4474      4477      4469      4468      4471      4472
      4469      4468      4471      4473      4469      4468      4471      4474
      4470      4468      4471      4472      4470      4468      4471      4473
      4470      4468      4471      4474      4471      4474      4477      4478
      4471      4474      4477      4479      4471      4474      4477      4480
      4472      4471      4474      4475      4472      4471      4474      4476
      4472      4471      4474      4477      4473      4471      4474      4475
      4473      4471      4474      4476      4473      4471      4474      4477
      4474      4477      4480      4481      4474      4477      4480      4482
      4474      4477      4480      4483      4475      4474      4477      4478
      4475      4474      4477      4479      4475      4474      4477      4480
      4476      4474      4477      4478      4476      4474      4477      4479
      4476      4474      4477      4480      4477      4480      4483      4484
      4477      4480      4483      4485      4477      4480      4483      4486
      4478      4477      4480      4481      4478      4477      4480      4482
      4478      4477      4480      4483      4479      4477      4480      4481
      4479      4477      4480      4482      4479      4477      4480      4483
      4480      4483      4486      4487      4480      4483      4486      4488
      4480      4483      4486      4489      4481      4480      4483      4484
      4481      4480      4483      4485      4481      4480      4483      4486
      4482      4480      4483      4484      4482      4480      4483      4485
      4482      4480      4483      4486      4483      4486      4489      4490
      4483      4486      4489      4491      4483      4486      4489      4492
      4484      4483      4486      4487      4484      4483      4486      4488
      4484      4483      4486      4489      4485      4483      4486      4487
      4485      4483      4486      4488      4485      4483      4486      4489
      4487      4486      4489      4490      4487      4486      4489      4491
      4487      4486      4489      4492      4488      4486      4489      4490
      4488      4486      4489      4491      4488      4486      4489      4492
      4493      4494      4509      4510      4493      4494      4509      4511
      4493      4494      4509      4515      4494      4493      4497      4498
      4494      4493      4497      4499      4494      4493      4497      4500
      4494      4493      4501      4502      4494      4493      4501      4503
      4494      4493      4501      4504      4494      4493      4505      4506
      4494      4493      4505      4507      4494      4493      4505      4508
      4494      4509      4515      4512      4495      4494      4493      4497
      4495      4494      4493      4501      4495      4494      4493      4505
      4495      4494      4509      4510      4495      4494      4509      4511
      4495      4494      4509      4515      4496      4494      4493      4497
      4496      4494      4493      4501      4496      4494      4493      4505
      4496      4494      4509      4510      4496      4494      4509      4511
      4496      4494      4509      4515      4497      4493      4494      4509
      4497      4493      4501      4502      4497      4493      4501      4503
      4497      4493      4501      4504      4497      4493      4505      4506
      4497      4493      4505      4507      4497      4493      4505      4508
      4498      4497      4493      4501      4498      4497      4493      4505
      4499      4497      4493      4501      4499      4497      4493      4505
      4500      4497      4493      4501      4500      4497      4493      4505
      4501      4493      4494      4509      4501      4493      4505      4506
      4501      4493      4505      4507      4501      4493      4505      4508
      4502      4501      4493      4505      4503      4501      4493      4505
      4504      4501      4493      4505      4505      4493      4494      4509
      4509      4515      4512      4513      4509      4515      4512      4514
      4509      4515      4512      4516      4510      4509      4515      4512
      4511      4509      4515      4512      4512      4516      4517      4518
      4512      4516      4517      4519      4512      4516      4517      4520
      4513      4512      4516      4517      4514      4512      4516      4517
      4515      4512      4516      4517      4516      4517      4520      4521
      4516      4517      4520      4522      4516      4517      4520      4528
      4517      4520      4522      4523      4517      4520      4528      4529
      4517      4520      4528      4530      4517      4520      4528      4531
      4518      4517      4520      4521      4518      4517      4520      4522
      4518      4517      4520      4528      4519      4517      4520      4521
      4519      4517      4520      4522      4519      4517      4520      4528
      4520      4522      4523      4524      4520      4522      4523      4525
      4520      4528      4531      4532      4521      4520      4522      4523
      4521      4520      4528      4529      4521      4520      4528      4530
      4521      4520      4528      4531      4522      4520      4528      4529
      4522      4520      4528      4530      4522      4520      4528      4531
      4522      4523      4525      4526      4522      4523      4525      4527
      4522      4523      4525      4537      4523      4522      4520      4528
      4523      4525      4537      4538      4523      4525      4537      4539
      4523      4525      4537      4540      4524      4523      4525      4526
      4524      4523      4525      4527      4524      4523      4525      4537
      4525      4537      4540      4541      4525      4537      4540      4542
      4525      4537      4540      4543      4526      4525      4537      4538
      4526      4525      4537      4539      4526      4525      4537      4540
      4527      4525      4537      4538      4527      4525      4537      4539
      4527      4525      4537      4540      4528      4531      4532      4533
      4528      4531      4532      4534      4529      4528      4531      4532
      4530      4528      4531      4532      4531      4532      4534      4535
      4531      4532      4534      4536      4531      4532      4534      4584
      4532      4534      4584      4585      4532      4534      4584      4586
      4532      4534      4584      4587      4533      4532      4534      4535
      4533      4532      4534      4536      4533      4532      4534      4584
      4534      4584      4587      4588      4534      4584      4587      4589
      4534      4584      4587      4590      4535      4534      4584      4585
      4535      4534      4584      4586      4535      4534      4584      4587
      4536      4534      4584      4585      4536      4534      4584      4586
      4536      4534      4584      4587      4537      4540      4543      4544
      4537      4540      4543      4545      4537      4540      4543      4546
      4538      4537      4540      4541      4538      4537      4540      4542
      4538      4537      4540      4543      4539      4537      4540      4541
      4539      4537      4540      4542      4539      4537      4540      4543
      4540      4543      4546      4547      4540      4543      4546      4548
      4540      4543      4546      4549      4541      4540      4543      4544
      4541      4540      4543      4545      4541      4540      4543      4546
      4542      4540      4543      4544      4542      4540      4543      4545
      4542      4540      4543      4546      4543      4546      4549      4550
      4543      4546      4549      4551      4543      4546      4549      4552
      4544      4543      4546      4547      4544      4543      4546      4548
      4544      4543      4546      4549      4545      4543      4546      4547
      4545      4543      4546      4548      4545      4543      4546      4549
      4546      4549      4552      4553      4546      4549      4552      4554
      4546      4549      4552      4555      4547      4546      4549      4550
      4547      4546      4549      4551      4547      4546      4549      4552
      4548      4546      4549      4550      4548      4546      4549      4551
      4548      4546      4549      4552      4549      4552      4555      4556
      4549      4552      4555      4557      4550      4549      4552      4553
      4550      4549      4552      4554      4550      4549      4552      4555
      4551      4549      4552      4553      4551      4549      4552      4554
      4551      4549      4552      4555      4552      4555      4557      4558
      4552      4555      4557      4559      4553      4552      4555      4556
      4553      4552      4555      4557      4554      4552      4555      4556
      4554      4552      4555      4557      4555      4557      4559      4560
      4555      4557      4559      4561      4555      4557      4559      4562
      4556      4555      4557      4558      4556      4555      4557      4559
      4557      4559      4562      4563      4557      4559      4562      4564
      4557      4559      4562      4565      4558      4557      4559      4560
      4558      4557      4559      4561      4558      4557      4559      4562
      4559      4562      4565      4566      4559      4562      4565      4567
      4559      4562      4565      4568      4560      4559      4562      4563
      4560      4559      4562      4564      4560      4559      4562      4565
      4561      4559      4562      4563      4561      4559      4562      4564
      4561      4559      4562      4565      4562      4565      4568      4569
      4562      4565      4568      4570      4562      4565      4568      4571
      4563      4562      4565      4566      4563      4562      4565      4567
      4563      4562      4565      4568      4564      4562      4565      4566
      4564      4562      4565      4567      4564      4562      4565      4568
      4565      4568      4571      4572      4565      4568      4571      4573
      4565      4568      4571      4574      4566      4565      4568      4569
      4566      4565      4568      4570      4566      4565      4568      4571
      4567      4565      4568      4569      4567      4565      4568      4570
      4567      4565      4568      4571      4568      4571      4574      4575
      4568      4571      4574      4576      4568      4571      4574      4577
      4569      4568      4571      4572      4569      4568      4571      4573
      4569      4568      4571      4574      4570      4568      4571      4572
      4570      4568      4571      4573      4570      4568      4571      4574
      4571      4574      4577      4578      4571      4574      4577      4579
      4571      4574      4577      4580      4572      4571      4574      4575
      4572      4571      4574      4576      4572      4571      4574      4577
      4573      4571      4574      4575      4573      4571      4574      4576
      4573      4571      4574      4577      4574      4577      4580      4581
      4574      4577      4580      4582      4574      4577      4580      4583
      4575      4574      4577      4578      4575      4574      4577      4579
      4575      4574      4577      4580      4576      4574      4577      4578
      4576      4574      4577      4579      4576      4574      4577      4580
      4578      4577      4580      4581      4578      4577      4580      4582
      4578      4577      4580      4583      4579      4577      4580      4581
      4579      4577      4580      4582      4579      4577      4580      4583
      4584      4587      4590      4591      4584      4587      4590      4592
      4584      4587      4590      4593      4585      4584      4587      4588
      4585      4584      4587      4589      4585      4584      4587      4590
      4586      4584      4587      4588      4586      4584      4587      4589
      4586      4584      4587      4590      4587      4590      4593      4594
      4587      4590      4593      4595      4587      4590      4593      4596
      4588      4587      4590      4591      4588      4587      4590      4592
      4588      4587      4590      4593      4589      4587      4590      4591
      4589      4587      4590      4592      4589      4587      4590      4593
      4590      4593      4596      4597      4590      4593      4596      4598
      4590      4593      4596      4599      4591      4590      4593      4594
      4591      4590      4593      4595      4591      4590      4593      4596
      4592      4590      4593      4594      4592      4590      4593      4595
      4592      4590      4593      4596      4593      4596      4599      4600
      4593      4596      4599      4601      4593      4596      4599      4602
      4594      4593      4596      4597      4594      4593      4596      4598
      4594      4593      4596      4599      4595      4593      4596      4597
      4595      4593      4596      4598      4595      4593      4596      4599
      4596      4599      4602      4603      4596      4599      4602      4604
      4596      4599      4602      4605      4597      4596      4599      4600
      4597      4596      4599      4601      4597      4596      4599      4602
      4598      4596      4599      4600      4598      4596      4599      4601
      4598      4596      4599      4602      4599      4602      4605      4606
      4599      4602      4605      4607      4599      4602      4605      4608
      4600      4599      4602      4603      4600      4599      4602      4604
      4600      4599      4602      4605      4601      4599      4602      4603
      4601      4599      4602      4604      4601      4599      4602      4605
      4602      4605      4608      4609      4602      4605      4608      4610
      4602      4605      4608      4611      4603      4602      4605      4606
      4603      4602      4605      4607      4603      4602      4605      4608
      4604      4602      4605      4606      4604      4602      4605      4607
      4604      4602      4605      4608      4605      4608      4611      4612
      4605      4608      4611      4613      4605      4608      4611      4614
      4606      4605      4608      4609      4606      4605      4608      4610
      4606      4605      4608      4611      4607      4605      4608      4609
      4607      4605      4608      4610      4607      4605      4608      4611
      4608      4611      4614      4615      4608      4611      4614      4616
      4608      4611      4614      4617      4609      4608      4611      4612
      4609      4608      4611      4613      4609      4608      4611      4614
      4610      4608      4611      4612      4610      4608      4611      4613
      4610      4608      4611      4614      4611      4614      4617      4618
      4611      4614      4617      4619      4611      4614      4617      4620
      4612      4611      4614      4615      4612      4611      4614      4616
      4612      4611      4614      4617      4613      4611      4614      4615
      4613      4611      4614      4616      4613      4611      4614      4617
      4614      4617      4620      4621      4614      4617      4620      4622
      4614      4617      4620      4623      4615      4614      4617      4618
      4615      4614      4617      4619      4615      4614      4617      4620
      4616      4614      4617      4618      4616      4614      4617      4619
      4616      4614      4617      4620      4617      4620      4623      4624
      4617      4620      4623      4625      4617      4620      4623      4626
      4618      4617      4620      4621      4618      4617      4620      4622
      4618      4617      4620      4623      4619      4617      4620      4621
      4619      4617      4620      4622      4619      4617      4620      4623
      4621      4620      4623      4624      4621      4620      4623      4625
      4621      4620      4623      4626      4622      4620      4623      4624
      4622      4620      4623      4625      4622      4620      4623      4626
      4627      4628      4643      4644      4627      4628      4643      4645
      4627      4628      4643      4649      4628      4627      4631      4632
      4628      4627      4631      4633      4628      4627      4631      4634
      4628      4627      4635      4636      4628      4627      4635      4637
      4628      4627      4635      4638      4628      4627      4639      4640
      4628      4627      4639      4641      4628      4627      4639      4642
      4628      4643      4649      4646      4629      4628      4627      4631
      4629      4628      4627      4635      4629      4628      4627      4639
      4629      4628      4643      4644      4629      4628      4643      4645
      4629      4628      4643      4649      4630      4628      4627      4631
      4630      4628      4627      4635      4630      4628      4627      4639
      4630      4628      4643      4644      4630      4628      4643      4645
      4630      4628      4643      4649      4631      4627      4628      4643
      4631      4627      4635      4636      4631      4627      4635      4637
      4631      4627      4635      4638      4631      4627      4639      4640
      4631      4627      4639      4641      4631      4627      4639      4642
      4632      4631      4627      4635      4632      4631      4627      4639
      4633      4631      4627      4635      4633      4631      4627      4639
      4634      4631      4627      4635      4634      4631      4627      4639
      4635      4627      4628      4643      4635      4627      4639      4640
      4635      4627      4639      4641      4635      4627      4639      4642
      4636      4635      4627      4639      4637      4635      4627      4639
      4638      4635      4627      4639      4639      4627      4628      4643
      4643      4649      4646      4647      4643      4649      4646      4648
      4643      4649      4646      4650      4644      4643      4649      4646
      4645      4643      4649      4646      4646      4650      4651      4652
      4646      4650      4651      4653      4646      4650      4651      4654
      4647      4646      4650      4651      4648      4646      4650      4651
      4649      4646      4650      4651      4650      4651      4654      4655
      4650      4651      4654      4656      4650      4651      4654      4662
      4651      4654      4656      4657      4651      4654      4662      4663
      4651      4654      4662      4664      4651      4654      4662      4665
      4652      4651      4654      4655      4652      4651      4654      4656
      4652      4651      4654      4662      4653      4651      4654      4655
      4653      4651      4654      4656      4653      4651      4654      4662
      4654      4656      4657      4658      4654      4656      4657      4659
      4654      4662      4665      4666      4655      4654      4656      4657
      4655      4654      4662      4663      4655      4654      4662      4664
      4655      4654      4662      4665      4656      4654      4662      4663
      4656      4654      4662      4664      4656      4654      4662      4665
      4656      4657      4659      4660      4656      4657      4659      4661
      4656      4657      4659      4671      4657      4656      4654      4662
      4657      4659      4671      4672      4657      4659      4671      4673
      4657      4659      4671      4674      4658      4657      4659      4660
      4658      4657      4659      4661      4658      4657      4659      4671
      4659      4671      4674      4675      4659      4671      4674      4676
      4659      4671      4674      4677      4660      4659      4671      4672
      4660      4659      4671      4673      4660      4659      4671      4674
      4661      4659      4671      4672      4661      4659      4671      4673
      4661      4659      4671      4674      4662      4665      4666      4667
      4662      4665      4666      4668      4663      4662      4665      4666
      4664      4662      4665      4666      4665      4666      4668      4669
      4665      4666      4668      4670      4665      4666      4668      4718
      4666      4668      4718      4719      4666      4668      4718      4720
      4666      4668      4718      4721      4667      4666      4668      4669
      4667      4666      4668      4670      4667      4666      4668      4718
      4668      4718      4721      4722      4668      4718      4721      4723
      4668      4718      4721      4724      4669      4668      4718      4719
      4669      4668      4718      4720      4669      4668      4718      4721
      4670      4668      4718      4719      4670      4668      4718      4720
      4670      4668      4718      4721      4671      4674      4677      4678
      4671      4674      4677      4679      4671      4674      4677      4680
      4672      4671      4674      4675      4672      4671      4674      4676
      4672      4671      4674      4677      4673      4671      4674      4675
      4673      4671      4674      4676      4673      4671      4674      4677
      4674      4677      4680      4681      4674      4677      4680      4682
      4674      4677      4680      4683      4675      4674      4677      4678
      4675      4674      4677      4679      4675      4674      4677      4680
      4676      4674      4677      4678      4676      4674      4677      4679
      4676      4674      4677      4680      4677      4680      4683      4684
      4677      4680      4683      4685      4677      4680      4683      4686
      4678      4677      4680      4681      4678      4677      4680      4682
      4678      4677      4680      4683      4679      4677      4680      4681
      4679      4677      4680      4682      4679      4677      4680      4683
      4680      4683      4686      4687      4680      4683      4686      4688
      4680      4683      4686      4689      4681      4680      4683      4684
      4681      4680      4683      4685      4681      4680      4683      4686
      4682      4680      4683      4684      4682      4680      4683      4685
      4682      4680      4683      4686      4683      4686      4689      4690
      4683      4686      4689      4691      4684      4683      4686      4687
      4684      4683      4686      4688      4684      4683      4686      4689
      4685      4683      4686      4687      4685      4683      4686      4688
      4685      4683      4686      4689      4686      4689      4691      4692
      4686      4689      4691      4693      4687      4686      4689      4690
      4687      4686      4689      4691      4688      4686      4689      4690
      4688      4686      4689      4691      4689      4691      4693      4694
      4689      4691      4693      4695      4689      4691      4693      4696
      4690      4689      4691      4692      4690      4689      4691      4693
      4691      4693      4696      4697      4691      4693      4696      4698
      4691      4693      4696      4699      4692      4691      4693      4694
      4692      4691      4693      4695      4692      4691      4693      4696
      4693      4696      4699      4700      4693      4696      4699      4701
      4693      4696      4699      4702      4694      4693      4696      4697
      4694      4693      4696      4698      4694      4693      4696      4699
      4695      4693      4696      4697      4695      4693      4696      4698
      4695      4693      4696      4699      4696      4699      4702      4703
      4696      4699      4702      4704      4696      4699      4702      4705
      4697      4696      4699      4700      4697      4696      4699      4701
      4697      4696      4699      4702      4698      4696      4699      4700
      4698      4696      4699      4701      4698      4696      4699      4702
      4699      4702      4705      4706      4699      4702      4705      4707
      4699      4702      4705      4708      4700      4699      4702      4703
      4700      4699      4702      4704      4700      4699      4702      4705
      4701      4699      4702      4703      4701      4699      4702      4704
      4701      4699      4702      4705      4702      4705      4708      4709
      4702      4705      4708      4710      4702      4705      4708      4711
      4703      4702      4705      4706      4703      4702      4705      4707
      4703      4702      4705      4708      4704      4702      4705      4706
      4704      4702      4705      4707      4704      4702      4705      4708
      4705      4708      4711      4712      4705      4708      4711      4713
      4705      4708      4711      4714      4706      4705      4708      4709
      4706      4705      4708      4710      4706      4705      4708      4711
      4707      4705      4708      4709      4707      4705      4708      4710
      4707      4705      4708      4711      4708      4711      4714      4715
      4708      4711      4714      4716      4708      4711      4714      4717
      4709      4708      4711      4712      4709      4708      4711      4713
      4709      4708      4711      4714      4710      4708      4711      4712
      4710      4708      4711      4713      4710      4708      4711      4714
      4712      4711      4714      4715      4712      4711      4714      4716
      4712      4711      4714      4717      4713      4711      4714      4715
      4713      4711      4714      4716      4713      4711      4714      4717
      4718      4721      4724      4725      4718      4721      4724      4726
      4718      4721      4724      4727      4719      4718      4721      4722
      4719      4718      4721      4723      4719      4718      4721      4724
      4720      4718      4721      4722      4720      4718      4721      4723
      4720      4718      4721      4724      4721      4724      4727      4728
      4721      4724      4727      4729      4721      4724      4727      4730
      4722      4721      4724      4725      4722      4721      4724      4726
      4722      4721      4724      4727      4723      4721      4724      4725
      4723      4721      4724      4726      4723      4721      4724      4727
      4724      4727      4730      4731      4724      4727      4730      4732
      4724      4727      4730      4733      4725      4724      4727      4728
      4725      4724      4727      4729      4725      4724      4727      4730
      4726      4724      4727      4728      4726      4724      4727      4729
      4726      4724      4727      4730      4727      4730      4733      4734
      4727      4730      4733      4735      4727      4730      4733      4736
      4728      4727      4730      4731      4728      4727      4730      4732
      4728      4727      4730      4733      4729      4727      4730      4731
      4729      4727      4730      4732      4729      4727      4730      4733
      4730      4733      4736      4737      4730      4733      4736      4738
      4730      4733      4736      4739      4731      4730      4733      4734
      4731      4730      4733      4735      4731      4730      4733      4736
      4732      4730      4733      4734      4732      4730      4733      4735
      4732      4730      4733      4736      4733      4736      4739      4740
      4733      4736      4739      4741      4733      4736      4739      4742
      4734      4733      4736      4737      4734      4733      4736      4738
      4734      4733      4736      4739      4735      4733      4736      4737
      4735      4733      4736      4738      4735      4733      4736      4739
      4736      4739      4742      4743      4736      4739      4742      4744
      4736      4739      4742      4745      4737      4736      4739      4740
      4737      4736      4739      4741      4737      4736      4739      4742
      4738      4736      4739      4740      4738      4736      4739      4741
      4738      4736      4739      4742      4739      4742      4745      4746
      4739      4742      4745      4747      4739      4742      4745      4748
      4740      4739      4742      4743      4740      4739      4742      4744
      4740      4739      4742      4745      4741      4739      4742      4743
      4741      4739      4742      4744      4741      4739      4742      4745
      4742      4745      4748      4749      4742      4745      4748      4750
      4742      4745      4748      4751      4743      4742      4745      4746
      4743      4742      4745      4747      4743      4742      4745      4748
      4744      4742      4745      4746      4744      4742      4745      4747
      4744      4742      4745      4748      4745      4748      4751      4752
      4745      4748      4751      4753      4745      4748      4751      4754
      4746      4745      4748      4749      4746      4745      4748      4750
      4746      4745      4748      4751      4747      4745      4748      4749
      4747      4745      4748      4750      4747      4745      4748      4751
      4748      4751      4754      4755      4748      4751      4754      4756
      4748      4751      4754      4757      4749      4748      4751      4752
      4749      4748      4751      4753      4749      4748      4751      4754
      4750      4748      4751      4752      4750      4748      4751      4753
      4750      4748      4751      4754      4751      4754      4757      4758
      4751      4754      4757      4759      4751      4754      4757      4760
      4752      4751      4754      4755      4752      4751      4754      4756
      4752      4751      4754      4757      4753      4751      4754      4755
      4753      4751      4754      4756      4753      4751      4754      4757
      4755      4754      4757      4758      4755      4754      4757      4759
      4755      4754      4757      4760      4756      4754      4757      4758
      4756      4754      4757      4759      4756      4754      4757      4760
      4761      4762      4777      4778      4761      4762      4777      4779
      4761      4762      4777      4783      4762      4761      4765      4766
      4762      4761      4765      4767      4762      4761      4765      4768
      4762      4761      4769      4770      4762      4761      4769      4771
      4762      4761      4769      4772      4762      4761      4773      4774
      4762      4761      4773      4775      4762      4761      4773      4776
      4762      4777      4783      4780      4763      4762      4761      4765
      4763      4762      4761      4769      4763      4762      4761      4773
      4763      4762      4777      4778      4763      4762      4777      4779
      4763      4762      4777      4783      4764      4762      4761      4765
      4764      4762      4761      4769      4764      4762      4761      4773
      4764      4762      4777      4778      4764      4762      4777      4779
      4764      4762      4777      4783      4765      4761      4762      4777
      4765      4761      4769      4770      4765      4761      4769      4771
      4765      4761      4769      4772      4765      4761      4773      4774
      4765      4761      4773      4775      4765      4761      4773      4776
      4766      4765      4761      4769      4766      4765      4761      4773
      4767      4765      4761      4769      4767      4765      4761      4773
      4768      4765      4761      4769      4768      4765      4761      4773
      4769      4761      4762      4777      4769      4761      4773      4774
      4769      4761      4773      4775      4769      4761      4773      4776
      4770      4769      4761      4773      4771      4769      4761      4773
      4772      4769      4761      4773      4773      4761      4762      4777
      4777      4783      4780      4781      4777      4783      4780      4782
      4777      4783      4780      4784      4778      4777      4783      4780
      4779      4777      4783      4780      4780      4784      4785      4786
      4780      4784      4785      4787      4780      4784      4785      4788
      4781      4780      4784      4785      4782      4780      4784      4785
      4783      4780      4784      4785      4784      4785      4788      4789
      4784      4785      4788      4790      4784      4785      4788      4796
      4785      4788      4790      4791      4785      4788      4796      4797
      4785      4788      4796      4798      4785      4788      4796      4799
      4786      4785      4788      4789      4786      4785      4788      4790
      4786      4785      4788      4796      4787      4785      4788      4789
      4787      4785      4788      4790      4787      4785      4788      4796
      4788      4790      4791      4792      4788      4790      4791      4793
      4788      4796      4799      4800      4789      4788      4790      4791
      4789      4788      4796      4797      4789      4788      4796      4798
      4789      4788      4796      4799      4790      4788      4796      4797
      4790      4788      4796      4798      4790      4788      4796      4799
      4790      4791      4793      4794      4790      4791      4793      4795
      4790      4791      4793      4805      4791      4790      4788      4796
      4791      4793      4805      4806      4791      4793      4805      4807
      4791      4793      4805      4808      4792      4791      4793      4794
      4792      4791      4793      4795      4792      4791      4793      4805
      4793      4805      4808      4809      4793      4805      4808      4810
      4793      4805      4808      4811      4794      4793      4805      4806
      4794      4793      4805      4807      4794      4793      4805      4808
      4795      4793      4805      4806      4795      4793      4805      4807
      4795      4793      4805      4808      4796      4799      4800      4801
      4796      4799      4800      4802      4797      4796      4799      4800
      4798      4796      4799      4800      4799      4800      4802      4803
      4799      4800      4802      4804      4799      4800      4802      4852
      4800      4802      4852      4853      4800      4802      4852      4854
      4800      4802      4852      4855      4801      4800      4802      4803
      4801      4800      4802      4804      4801      4800      4802      4852
      4802      4852      4855      4856      4802      4852      4855      4857
      4802      4852      4855      4858      4803      4802      4852      4853
      4803      4802      4852      4854      4803      4802      4852      4855
      4804      4802      4852      4853      4804      4802      4852      4854
      4804      4802      4852      4855      4805      4808      4811      4812
      4805      4808      4811      4813      4805      4808      4811      4814
      4806      4805      4808      4809      4806      4805      4808      4810
      4806      4805      4808      4811      4807      4805      4808      4809
      4807      4805      4808      4810      4807      4805      4808      4811
      4808      4811      4814      4815      4808      4811      4814      4816
      4808      4811      4814      4817      4809      4808      4811      4812
      4809      4808      4811      4813      4809      4808      4811      4814
      4810      4808      4811      4812      4810      4808      4811      4813
      4810      4808      4811      4814      4811      4814      4817      4818
      4811      4814      4817      4819      4811      4814      4817      4820
      4812      4811      4814      4815      4812      4811      4814      4816
      4812      4811      4814      4817      4813      4811      4814      4815
      4813      4811      4814      4816      4813      4811      4814      4817
      4814      4817      4820      4821      4814      4817      4820      4822
      4814      4817      4820      4823      4815      4814      4817      4818
      4815      4814      4817      4819      4815      4814      4817      4820
      4816      4814      4817      4818      4816      4814      4817      4819
      4816      4814      4817      4820      4817      4820      4823      4824
      4817      4820      4823      4825      4818      4817      4820      4821
      4818      4817      4820      4822      4818      4817      4820      4823
      4819      4817      4820      4821      4819      4817      4820      4822
      4819      4817      4820      4823      4820      4823      4825      4826
      4820      4823      4825      4827      4821      4820      4823      4824
      4821      4820      4823      4825      4822      4820      4823      4824
      4822      4820      4823      4825      4823      4825      4827      4828
      4823      4825      4827      4829      4823      4825      4827      4830
      4824      4823      4825      4826      4824      4823      4825      4827
      4825      4827      4830      4831      4825      4827      4830      4832
      4825      4827      4830      4833      4826      4825      4827      4828
      4826      4825      4827      4829      4826      4825      4827      4830
      4827      4830      4833      4834      4827      4830      4833      4835
      4827      4830      4833      4836      4828      4827      4830      4831
      4828      4827      4830      4832      4828      4827      4830      4833
      4829      4827      4830      4831      4829      4827      4830      4832
      4829      4827      4830      4833      4830      4833      4836      4837
      4830      4833      4836      4838      4830      4833      4836      4839
      4831      4830      4833      4834      4831      4830      4833      4835
      4831      4830      4833      4836      4832      4830      4833      4834
      4832      4830      4833      4835      4832      4830      4833      4836
      4833      4836      4839      4840      4833      4836      4839      4841
      4833      4836      4839      4842      4834      4833      4836      4837
      4834      4833      4836      4838      4834      4833      4836      4839
      4835      4833      4836      4837      4835      4833      4836      4838
      4835      4833      4836      4839      4836      4839      4842      4843
      4836      4839      4842      4844      4836      4839      4842      4845
      4837      4836      4839      4840      4837      4836      4839      4841
      4837      4836      4839      4842      4838      4836      4839      4840
      4838      4836      4839      4841      4838      4836      4839      4842
      4839      4842      4845      4846      4839      4842      4845      4847
      4839      4842      4845      4848      4840      4839      4842      4843
      4840      4839      4842      4844      4840      4839      4842      4845
      4841      4839      4842      4843      4841      4839      4842      4844
      4841      4839      4842      4845      4842      4845      4848      4849
      4842      4845      4848      4850      4842      4845      4848      4851
      4843      4842      4845      4846      4843      4842      4845      4847
      4843      4842      4845      4848      4844      4842      4845      4846
      4844      4842      4845      4847      4844      4842      4845      4848
      4846      4845      4848      4849      4846      4845      4848      4850
      4846      4845      4848      4851      4847      4845      4848      4849
      4847      4845      4848      4850      4847      4845      4848      4851
      4852      4855      4858      4859      4852      4855      4858      4860
      4852      4855      4858      4861      4853      4852      4855      4856
      4853      4852      4855      4857      4853      4852      4855      4858
      4854      4852      4855      4856      4854      4852      4855      4857
      4854      4852      4855      4858      4855      4858      4861      4862
      4855      4858      4861      4863      4855      4858      4861      4864
      4856      4855      4858      4859      4856      4855      4858      4860
      4856      4855      4858      4861      4857      4855      4858      4859
      4857      4855      4858      4860      4857      4855      4858      4861
      4858      4861      4864      4865      4858      4861      4864      4866
      4858      4861      4864      4867      4859      4858      4861      4862
      4859      4858      4861      4863      4859      4858      4861      4864
      4860      4858      4861      4862      4860      4858      4861      4863
      4860      4858      4861      4864      4861      4864      4867      4868
      4861      4864      4867      4869      4861      4864      4867      4870
      4862      4861      4864      4865      4862      4861      4864      4866
      4862      4861      4864      4867      4863      4861      4864      4865
      4863      4861      4864      4866      4863      4861      4864      4867
      4864      4867      4870      4871      4864      4867      4870      4872
      4864      4867      4870      4873      4865      4864      4867      4868
      4865      4864      4867      4869      4865      4864      4867      4870
      4866      4864      4867      4868      4866      4864      4867      4869
      4866      4864      4867      4870      4867      4870      4873      4874
      4867      4870      4873      4875      4867      4870      4873      4876
      4868      4867      4870      4871      4868      4867      4870      4872
      4868      4867      4870      4873      4869      4867      4870      4871
      4869      4867      4870      4872      4869      4867      4870      4873
      4870      4873      4876      4877      4870      4873      4876      4878
      4870      4873      4876      4879      4871      4870      4873      4874
      4871      4870      4873      4875      4871      4870      4873      4876
      4872      4870      4873      4874      4872      4870      4873      4875
      4872      4870      4873      4876      4873      4876      4879      4880
      4873      4876      4879      4881      4873      4876      4879      4882
      4874      4873      4876      4877      4874      4873      4876      4878
      4874      4873      4876      4879      4875      4873      4876      4877
      4875      4873      4876      4878      4875      4873      4876      4879
      4876      4879      4882      4883      4876      4879      4882      4884
      4876      4879      4882      4885      4877      4876      4879      4880
      4877      4876      4879      4881      4877      4876      4879      4882
      4878      4876      4879      4880      4878      4876      4879      4881
      4878      4876      4879      4882      4879      4882      4885      4886
      4879      4882      4885      4887      4879      4882      4885      4888
      4880      4879      4882      4883      4880      4879      4882      4884
      4880      4879      4882      4885      4881      4879      4882      4883
      4881      4879      4882      4884      4881      4879      4882      4885
      4882      4885      4888      4889      4882      4885      4888      4890
      4882      4885      4888      4891      4883      4882      4885      4886
      4883      4882      4885      4887      4883      4882      4885      4888
      4884      4882      4885      4886      4884      4882      4885      4887
      4884      4882      4885      4888      4885      4888      4891      4892
      4885      4888      4891      4893      4885      4888      4891      4894
      4886      4885      4888      4889      4886      4885      4888      4890
      4886      4885      4888      4891      4887      4885      4888      4889
      4887      4885      4888      4890      4887      4885      4888      4891
      4889      4888      4891      4892      4889      4888      4891      4893
      4889      4888      4891      4894      4890      4888      4891      4892
      4890      4888      4891      4893      4890      4888      4891      4894
      4895      4899      4901      4902      4895      4899      4901      4903
      4895      4899      4904      4905      4895      4899      4904      4906
      4895      4899      4904      4910      4896      4895      4899      4900
      4896      4895      4899      4901      4896      4895      4899      4904
      4897      4895      4899      4900      4897      4895      4899      4901
      4897      4895      4899      4904      4898      4895      4899      4900
      4898      4895      4899      4901      4898      4895      4899      4904
      4899      4904      4910      4907      4900      4899      4901      4902
      4900      4899      4901      4903      4900      4899      4904      4905
      4900      4899      4904      4906      4900      4899      4904      4910
      4901      4899      4904      4905      4901      4899      4904      4906
      4901      4899      4904      4910      4902      4901      4899      4904
      4903      4901      4899      4904      4904      4910      4907      4908
      4904      4910      4907      4909      4904      4910      4907      4911
      4905      4904      4910      4907      4906      4904      4910      4907
      4907      4911      4912      4913      4907      4911      4912      4914
      4907      4911      4912      4915      4908      4907      4911      4912
      4909      4907      4911      4912      4910      4907      4911      4912
      4911      4912      4915      4916      4911      4912      4915      4917
      4911      4912      4915      4923      4912      4915      4917      4918
      4912      4915      4923      4924      4912      4915      4923      4925
      4912      4915      4923      4926      4913      4912      4915      4916
      4913      4912      4915      4917      4913      4912      4915      4923
      4914      4912      4915      4916      4914      4912      4915      4917
      4914      4912      4915      4923      4915      4917      4918      4919
      4915      4917      4918      4920      4915      4923      4926      4927
      4916      4915      4917      4918      4916      4915      4923      4924
      4916      4915      4923      4925      4916      4915      4923      4926
      4917      4915      4923      4924      4917      4915      4923      4925
      4917      4915      4923      4926      4917      4918      4920      4921
      4917      4918      4920      4922      4917      4918      4920      4932
      4918      4917      4915      4923      4918      4920      4932      4933
      4918      4920      4932      4934      4918      4920      4932      4935
      4919      4918      4920      4921      4919      4918      4920      4922
      4919      4918      4920      4932      4920      4932      4935      4936
      4920      4932      4935      4937      4920      4932      4935      4938
      4921      4920      4932      4933      4921      4920      4932      4934
      4921      4920      4932      4935      4922      4920      4932      4933
      4922      4920      4932      4934      4922      4920      4932      4935
      4923      4926      4927      4928      4923      4926      4927      4929
      4924      4923      4926      4927      4925      4923      4926      4927
      4926      4927      4929      4930      4926      4927      4929      4931
      4926      4927      4929      4979      4927      4929      4979      4980
      4927      4929      4979      4981      4927      4929      4979      4982
      4928      4927      4929      4930      4928      4927      4929      4931
      4928      4927      4929      4979      4929      4979      4982      4983
      4929      4979      4982      4984      4929      4979      4982      4985
      4930      4929      4979      4980      4930      4929      4979      4981
      4930      4929      4979      4982      4931      4929      4979      4980
      4931      4929      4979      4981      4931      4929      4979      4982
      4932      4935      4938      4939      4932      4935      4938      4940
      4932      4935      4938      4941      4933      4932      4935      4936
      4933      4932      4935      4937      4933      4932      4935      4938
      4934      4932      4935      4936      4934      4932      4935      4937
      4934      4932      4935      4938      4935      4938      4941      4942
      4935      4938      4941      4943      4935      4938      4941      4944
      4936      4935      4938      4939      4936      4935      4938      4940
      4936      4935      4938      4941      4937      4935      4938      4939
      4937      4935      4938      4940      4937      4935      4938      4941
      4938      4941      4944      4945      4938      4941      4944      4946
      4938      4941      4944      4947      4939      4938      4941      4942
      4939      4938      4941      4943      4939      4938      4941      4944
      4940      4938      4941      4942      4940      4938      4941      4943
      4940      4938      4941      4944      4941      4944      4947      4948
      4941      4944      4947      4949      4941      4944      4947      4950
      4942      4941      4944      4945      4942      4941      4944      4946
      4942      4941      4944      4947      4943      4941      4944      4945
      4943      4941      4944      4946      4943      4941      4944      4947
      4944      4947      4950      4951      4944      4947      4950      4952
      4945      4944      4947      4948      4945      4944      4947      4949
      4945      4944      4947      4950      4946      4944      4947      4948
      4946      4944      4947      4949      4946      4944      4947      4950
      4947      4950      4952      4953      4947      4950      4952      4954
      4948      4947      4950      4951      4948      4947      4950      4952
      4949      4947      4950      4951      4949      4947      4950      4952
      4950      4952      4954      4955      4950      4952      4954      4956
      4950      4952      4954      4957      4951      4950      4952      4953
      4951      4950      4952      4954      4952      4954      4957      4958
      4952      4954      4957      4959      4952      4954      4957      4960
      4953      4952      4954      4955      4953      4952      4954      4956
      4953      4952      4954      4957      4954      4957      4960      4961
      4954      4957      4960      4962      4954      4957      4960      4963
      4955      4954      4957      4958      4955      4954      4957      4959
      4955      4954      4957      4960      4956      4954      4957      4958
      4956      4954      4957      4959      4956      4954      4957      4960
      4957      4960      4963      4964      4957      4960      4963      4965
      4957      4960      4963      4966      4958      4957      4960      4961
      4958      4957      4960      4962      4958      4957      4960      4963
      4959      4957      4960      4961      4959      4957      4960      4962
      4959      4957      4960      4963      4960      4963      4966      4967
      4960      4963      4966      4968      4960      4963      4966      4969
      4961      4960      4963      4964      4961      4960      4963      4965
      4961      4960      4963      4966      4962      4960      4963      4964
      4962      4960      4963      4965      4962      4960      4963      4966
      4963      4966      4969      4970      4963      4966      4969      4971
      4963      4966      4969      4972      4964      4963      4966      4967
      4964      4963      4966      4968      4964      4963      4966      4969
      4965      4963      4966      4967      4965      4963      4966      4968
      4965      4963      4966      4969      4966      4969      4972      4973
      4966      4969      4972      4974      4966      4969      4972      4975
      4967      4966      4969      4970      4967      4966      4969      4971
      4967      4966      4969      4972      4968      4966      4969      4970
      4968      4966      4969      4971      4968      4966      4969      4972
      4969      4972      4975      4976      4969      4972      4975      4977
      4969      4972      4975      4978      4970      4969      4972      4973
      4970      4969      4972      4974      4970      4969      4972      4975
      4971      4969      4972      4973      4971      4969      4972      4974
      4971      4969      4972      4975      4973      4972      4975      4976
      4973      4972      4975      4977      4973      4972      4975      4978
      4974      4972      4975      4976      4974      4972      4975      4977
      4974      4972      4975      4978      4979      4982      4985      4986
      4979      4982      4985      4987      4979      4982      4985      4988
      4980      4979      4982      4983      4980      4979      4982      4984
      4980      4979      4982      4985      4981      4979      4982      4983
      4981      4979      4982      4984      4981      4979      4982      4985
      4982      4985      4988      4989      4982      4985      4988      4990
      4982      4985      4988      4991      4983      4982      4985      4986
      4983      4982      4985      4987      4983      4982      4985      4988
      4984      4982      4985      4986      4984      4982      4985      4987
      4984      4982      4985      4988      4985      4988      4991      4992
      4985      4988      4991      4993      4985      4988      4991      4994
      4986      4985      4988      4989      4986      4985      4988      4990
      4986      4985      4988      4991      4987      4985      4988      4989
      4987      4985      4988      4990      4987      4985      4988      4991
      4988      4991      4994      4995      4988      4991      4994      4996
      4988      4991      4994      4997      4989      4988      4991      4992
      4989      4988      4991      4993      4989      4988      4991      4994
      4990      4988      4991      4992      4990      4988      4991      4993
      4990      4988      4991      4994      4991      4994      4997      4998
      4991      4994      4997      4999      4991      4994      4997      5000
      4992      4991      4994      4995      4992      4991      4994      4996
      4992      4991      4994      4997      4993      4991      4994      4995
      4993      4991      4994      4996      4993      4991      4994      4997
      4994      4997      5000      5001      4994      4997      5000      5002
      4994      4997      5000      5003      4995      4994      4997      4998
      4995      4994      4997      4999      4995      4994      4997      5000
      4996      4994      4997      4998      4996      4994      4997      4999
      4996      4994      4997      5000      4997      5000      5003      5004
      4997      5000      5003      5005      4997      5000      5003      5006
      4998      4997      5000      5001      4998      4997      5000      5002
      4998      4997      5000      5003      4999      4997      5000      5001
      4999      4997      5000      5002      4999      4997      5000      5003
      5000      5003      5006      5007      5000      5003      5006      5008
      5000      5003      5006      5009      5001      5000      5003      5004
      5001      5000      5003      5005      5001      5000      5003      5006
      5002      5000      5003      5004      5002      5000      5003      5005
      5002      5000      5003      5006      5003      5006      5009      5010
      5003      5006      5009      5011      5003      5006      5009      5012
      5004      5003      5006      5007      5004      5003      5006      5008
      5004      5003      5006      5009      5005      5003      5006      5007
      5005      5003      5006      5008      5005      5003      5006      5009
      5006      5009      5012      5013      5006      5009      5012      5014
      5006      5009      5012      5015      5007      5006      5009      5010
      5007      5006      5009      5011      5007      5006      5009      5012
      5008      5006      5009      5010      5008      5006      5009      5011
      5008      5006      5009      5012      5009      5012      5015      5016
      5009      5012      5015      5017      5009      5012      5015      5018
      5010      5009      5012      5013      5010      5009      5012      5014
      5010      5009      5012      5015      5011      5009      5012      5013
      5011      5009      5012      5014      5011      5009      5012      5015
      5012      5015      5018      5019      5012      5015      5018      5020
      5012      5015      5018      5021      5013      5012      5015      5016
      5013      5012      5015      5017      5013      5012      5015      5018
      5014      5012      5015      5016      5014      5012      5015      5017
      5014      5012      5015      5018      5016      5015      5018      5019
      5016      5015      5018      5020      5016      5015      5018      5021
      5017      5015      5018      5019      5017      5015      5018      5020
      5017      5015      5018      5021      5022      5023      5038      5039
      5022      5023      5038      5040      5022      5023      5038      5044
      5023      5022      5026      5027      5023      5022      5026      5028
      5023      5022      5026      5029      5023      5022      5030      5031
      5023      5022      5030      5032      5023      5022      5030      5033
      5023      5022      5034      5035      5023      5022      5034      5036
      5023      5022      5034      5037      5023      5038      5044      5041
      5024      5023      5022      5026      5024      5023      5022      5030
      5024      5023      5022      5034      5024      5023      5038      5039
      5024      5023      5038      5040      5024      5023      5038      5044
      5025      5023      5022      5026      5025      5023      5022      5030
      5025      5023      5022      5034      5025      5023      5038      5039
      5025      5023      5038      5040      5025      5023      5038      5044
      5026      5022      5023      5038      5026      5022      5030      5031
      5026      5022      5030      5032      5026      5022      5030      5033
      5026      5022      5034      5035      5026      5022      5034      5036
      5026      5022      5034      5037      5027      5026      5022      5030
      5027      5026      5022      5034      5028      5026      5022      5030
      5028      5026      5022      5034      5029      5026      5022      5030
      5029      5026      5022      5034      5030      5022      5023      5038
      5030      5022      5034      5035      5030      5022      5034      5036
      5030      5022      5034      5037      5031      5030      5022      5034
      5032      5030      5022      5034      5033      5030      5022      5034
      5034      5022      5023      5038      5038      5044      5041      5042
      5038      5044      5041      5043      5038      5044      5041      5045
      5039      5038      5044      5041      5040      5038      5044      5041
      5041      5045      5046      5047      5041      5045      5046      5048
      5041      5045      5046      5049      5042      5041      5045      5046
      5043      5041      5045      5046      5044      5041      5045      5046
      5045      5046      5049      5050      5045      5046      5049      5051
      5045      5046      5049      5057      5046      5049      5051      5052
      5046      5049      5057      5058      5046      5049      5057      5059
      5046      5049      5057      5060      5047      5046      5049      5050
      5047      5046      5049      5051      5047      5046      5049      5057
      5048      5046      5049      5050      5048      5046      5049      5051
      5048      5046      5049      5057      5049      5051      5052      5053
      5049      5051      5052      5054      5049      5057      5060      5061
      5050      5049      5051      5052      5050      5049      5057      5058
      5050      5049      5057      5059      5050      5049      5057      5060
      5051      5049      5057      5058      5051      5049      5057      5059
      5051      5049      5057      5060      5051      5052      5054      5055
      5051      5052      5054      5056      5051      5052      5054      5066
      5052      5051      5049      5057      5052      5054      5066      5067
      5052      5054      5066      5068      5052      5054      5066      5069
      5053      5052      5054      5055      5053      5052      5054      5056
      5053      5052      5054      5066      5054      5066      5069      5070
      5054      5066      5069      5071      5054      5066      5069      5072
      5055      5054      5066      5067      5055      5054      5066      5068
      5055      5054      5066      5069      5056      5054      5066      5067
      5056      5054      5066      5068      5056      5054      5066      5069
      5057      5060      5061      5062      5057      5060      5061      5063
      5058      5057      5060      5061      5059      5057      5060      5061
      5060      5061      5063      5064      5060      5061      5063      5065
      5060      5061      5063      5113      5061      5063      5113      5114
      5061      5063      5113      5115      5061      5063      5113      5116
      5062      5061      5063      5064      5062      5061      5063      5065
      5062      5061      5063      5113      5063      5113      5116      5117
      5063      5113      5116      5118      5063      5113      5116      5119
      5064      5063      5113      5114      5064      5063      5113      5115
      5064      5063      5113      5116      5065      5063      5113      5114
      5065      5063      5113      5115      5065      5063      5113      5116
      5066      5069      5072      5073      5066      5069      5072      5074
      5066      5069      5072      5075      5067      5066      5069      5070
      5067      5066      5069      5071      5067      5066      5069      5072
      5068      5066      5069      5070      5068      5066      5069      5071
      5068      5066      5069      5072      5069      5072      5075      5076
      5069      5072      5075      5077      5069      5072      5075      5078
      5070      5069      5072      5073      5070      5069      5072      5074
      5070      5069      5072      5075      5071      5069      5072      5073
      5071      5069      5072      5074      5071      5069      5072      5075
      5072      5075      5078      5079      5072      5075      5078      5080
      5072      5075      5078      5081      5073      5072      5075      5076
      5073      5072      5075      5077      5073      5072      5075      5078
      5074      5072      5075      5076      5074      5072      5075      5077
      5074      5072      5075      5078      5075      5078      5081      5082
      5075      5078      5081      5083      5075      5078      5081      5084
      5076      5075      5078      5079      5076      5075      5078      5080
      5076      5075      5078      5081      5077      5075      5078      5079
      5077      5075      5078      5080      5077      5075      5078      5081
      5078      5081      5084      5085      5078      5081      5084      5086
      5079      5078      5081      5082      5079      5078      5081      5083
      5079      5078      5081      5084      5080      5078      5081      5082
      5080      5078      5081      5083      5080      5078      5081      5084
      5081      5084      5086      5087      5081      5084      5086      5088
      5082      5081      5084      5085      5082      5081      5084      5086
      5083      5081      5084      5085      5083      5081      5084      5086
      5084      5086      5088      5089      5084      5086      5088      5090
      5084      5086      5088      5091      5085      5084      5086      5087
      5085      5084      5086      5088      5086      5088      5091      5092
      5086      5088      5091      5093      5086      5088      5091      5094
      5087      5086      5088      5089      5087      5086      5088      5090
      5087      5086      5088      5091      5088      5091      5094      5095
      5088      5091      5094      5096      5088      5091      5094      5097
      5089      5088      5091      5092      5089      5088      5091      5093
      5089      5088      5091      5094      5090      5088      5091      5092
      5090      5088      5091      5093      5090      5088      5091      5094
      5091      5094      5097      5098      5091      5094      5097      5099
      5091      5094      5097      5100      5092      5091      5094      5095
      5092      5091      5094      5096      5092      5091      5094      5097
      5093      5091      5094      5095      5093      5091      5094      5096
      5093      5091      5094      5097      5094      5097      5100      5101
      5094      5097      5100      5102      5094      5097      5100      5103
      5095      5094      5097      5098      5095      5094      5097      5099
      5095      5094      5097      5100      5096      5094      5097      5098
      5096      5094      5097      5099      5096      5094      5097      5100
      5097      5100      5103      5104      5097      5100      5103      5105
      5097      5100      5103      5106      5098      5097      5100      5101
      5098      5097      5100      5102      5098      5097      5100      5103
      5099      5097      5100      5101      5099      5097      5100      5102
      5099      5097      5100      5103      5100      5103      5106      5107
      5100      5103      5106      5108      5100      5103      5106      5109
      5101      5100      5103      5104      5101      5100      5103      5105
      5101      5100      5103      5106      5102      5100      5103      5104
      5102      5100      5103      5105      5102      5100      5103      5106
      5103      5106      5109      5110      5103      5106      5109      5111
      5103      5106      5109      5112      5104      5103      5106      5107
      5104      5103      5106      5108      5104      5103      5106      5109
      5105      5103      5106      5107      5105      5103      5106      5108
      5105      5103      5106      5109      5107      5106      5109      5110
      5107      5106      5109      5111      5107      5106      5109      5112
      5108      5106      5109      5110      5108      5106      5109      5111
      5108      5106      5109      5112      5113      5116      5119      5120
      5113      5116      5119      5121      5113      5116      5119      5122
      5114      5113      5116      5117      5114      5113      5116      5118
      5114      5113      5116      5119      5115      5113      5116      5117
      5115      5113      5116      5118      5115      5113      5116      5119
      5116      5119      5122      5123      5116      5119      5122      5124
      5116      5119      5122      5125      5117      5116      5119      5120
      5117      5116      5119      5121      5117      5116      5119      5122
      5118      5116      5119      5120      5118      5116      5119      5121
      5118      5116      5119      5122      5119      5122      5125      5126
      5119      5122      5125      5127      5119      5122      5125      5128
      5120      5119      5122      5123      5120      5119      5122      5124
      5120      5119      5122      5125      5121      5119      5122      5123
      5121      5119      5122      5124      5121      5119      5122      5125
      5122      5125      5128      5129      5122      5125      5128      5130
      5122      5125      5128      5131      5123      5122      5125      5126
      5123      5122      5125      5127      5123      5122      5125      5128
      5124      5122      5125      5126      5124      5122      5125      5127
      5124      5122      5125      5128      5125      5128      5131      5132
      5125      5128      5131      5133      5125      5128      5131      5134
      5126      5125      5128      5129      5126      5125      5128      5130
      5126      5125      5128      5131      5127      5125      5128      5129
      5127      5125      5128      5130      5127      5125      5128      5131
      5128      5131      5134      5135      5128      5131      5134      5136
      5128      5131      5134      5137      5129      5128      5131      5132
      5129      5128      5131      5133      5129      5128      5131      5134
      5130      5128      5131      5132      5130      5128      5131      5133
      5130      5128      5131      5134      5131      5134      5137      5138
      5131      5134      5137      5139      5131      5134      5137      5140
      5132      5131      5134      5135      5132      5131      5134      5136
      5132      5131      5134      5137      5133      5131      5134      5135
      5133      5131      5134      5136      5133      5131      5134      5137
      5134      5137      5140      5141      5134      5137      5140      5142
      5134      5137      5140      5143      5135      5134      5137      5138
      5135      5134      5137      5139      5135      5134      5137      5140
      5136      5134      5137      5138      5136      5134      5137      5139
      5136      5134      5137      5140      5137      5140      5143      5144
      5137      5140      5143      5145      5137      5140      5143      5146
      5138      5137      5140      5141      5138      5137      5140      5142
      5138      5137      5140      5143      5139      5137      5140      5141
      5139      5137      5140      5142      5139      5137      5140      5143
      5140      5143      5146      5147      5140      5143      5146      5148
      5140      5143      5146      5149      5141      5140      5143      5144
      5141      5140      5143      5145      5141      5140      5143      5146
      5142      5140      5143      5144      5142      5140      5143      5145
      5142      5140      5143      5146      5143      5146      5149      5150
      5143      5146      5149      5151      5143      5146      5149      5152
      5144      5143      5146      5147      5144      5143      5146      5148
      5144      5143      5146      5149      5145      5143      5146      5147
      5145      5143      5146      5148      5145      5143      5146      5149
      5146      5149      5152      5153      5146      5149      5152      5154
      5146      5149      5152      5155      5147      5146      5149      5150
      5147      5146      5149      5151      5147      5146      5149      5152
      5148      5146      5149      5150      5148      5146      5149      5151
      5148      5146      5149      5152      5150      5149      5152      5153
      5150      5149      5152      5154      5150      5149      5152      5155
      5151      5149      5152      5153      5151      5149      5152      5154
      5151      5149      5152      5155      5156      5157      5172      5173
      5156      5157      5172      5174      5156      5157      5172      5178
      5157      5156      5160      5161      5157      5156      5160      5162
      5157      5156      5160      5163      5157      5156      5164      5165
      5157      5156      5164      5166      5157      5156      5164      5167
      5157      5156      5168      5169      5157      5156      5168      5170
      5157      5156      5168      5171      5157      5172      5178      5175
      5158      5157      5156      5160      5158      5157      5156      5164
      5158      5157      5156      5168      5158      5157      5172      5173
      5158      5157      5172      5174      5158      5157      5172      5178
      5159      5157      5156      5160      5159      5157      5156      5164
      5159      5157      5156      5168      5159      5157      5172      5173
      5159      5157      5172      5174      5159      5157      5172      5178
      5160      5156      5157      5172      5160      5156      5164      5165
      5160      5156      5164      5166      5160      5156      5164      5167
      5160      5156      5168      5169      5160      5156      5168      5170
      5160      5156      5168      5171      5161      5160      5156      5164
      5161      5160      5156      5168      5162      5160      5156      5164
      5162      5160      5156      5168      5163      5160      5156      5164
      5163      5160      5156      5168      5164      5156      5157      5172
      5164      5156      5168      5169      5164      5156      5168      5170
      5164      5156      5168      5171      5165      5164      5156      5168
      5166      5164      5156      5168      5167      5164      5156      5168
      5168      5156      5157      5172      5172      5178      5175      5176
      5172      5178      5175      5177      5172      5178      5175      5179
      5173      5172      5178      5175      5174      5172      5178      5175
      5175      5179      5180      5181      5175      5179      5180      5182
      5175      5179      5180      5183      5176      5175      5179      5180
      5177      5175      5179      5180      5178      5175      5179      5180
      5179      5180      5183      5184      5179      5180      5183      5185
      5179      5180      5183      5191      5180      5183      5185      5186
      5180      5183      5191      5192      5180      5183      5191      5193
      5180      5183      5191      5194      5181      5180      5183      5184
      5181      5180      5183      5185      5181      5180      5183      5191
      5182      5180      5183      5184      5182      5180      5183      5185
      5182      5180      5183      5191      5183      5185      5186      5187
      5183      5185      5186      5188      5183      5191      5194      5195
      5184      5183      5185      5186      5184      5183      5191      5192
      5184      5183      5191      5193      5184      5183      5191      5194
      5185      5183      5191      5192      5185      5183      5191      5193
      5185      5183      5191      5194      5185      5186      5188      5189
      5185      5186      5188      5190      5185      5186      5188      5200
      5186      5185      5183      5191      5186      5188      5200      5201
      5186      5188      5200      5202      5186      5188      5200      5203
      5187      5186      5188      5189      5187      5186      5188      5190
      5187      5186      5188      5200      5188      5200      5203      5204
      5188      5200      5203      5205      5188      5200      5203      5206
      5189      5188      5200      5201      5189      5188      5200      5202
      5189      5188      5200      5203      5190      5188      5200      5201
      5190      5188      5200      5202      5190      5188      5200      5203
      5191      5194      5195      5196      5191      5194      5195      5197
      5192      5191      5194      5195      5193      5191      5194      5195
      5194      5195      5197      5198      5194      5195      5197      5199
      5194      5195      5197      5247      5195      5197      5247      5248
      5195      5197      5247      5249      5195      5197      5247      5250
      5196      5195      5197      5198      5196      5195      5197      5199
      5196      5195      5197      5247      5197      5247      5250      5251
      5197      5247      5250      5252      5197      5247      5250      5253
      5198      5197      5247      5248      5198      5197      5247      5249
      5198      5197      5247      5250      5199      5197      5247      5248
      5199      5197      5247      5249      5199      5197      5247      5250
      5200      5203      5206      5207      5200      5203      5206      5208
      5200      5203      5206      5209      5201      5200      5203      5204
      5201      5200      5203      5205      5201      5200      5203      5206
      5202      5200      5203      5204      5202      5200      5203      5205
      5202      5200      5203      5206      5203      5206      5209      5210
      5203      5206      5209      5211      5203      5206      5209      5212
      5204      5203      5206      5207      5204      5203      5206      5208
      5204      5203      5206      5209      5205      5203      5206      5207
      5205      5203      5206      5208      5205      5203      5206      5209
      5206      5209      5212      5213      5206      5209      5212      5214
      5206      5209      5212      5215      5207      5206      5209      5210
      5207      5206      5209      5211      5207      5206      5209      5212
      5208      5206      5209      5210      5208      5206      5209      5211
      5208      5206      5209      5212      5209      5212      5215      5216
      5209      5212      5215      5217      5209      5212      5215      5218
      5210      5209      5212      5213      5210      5209      5212      5214
      5210      5209      5212      5215      5211      5209      5212      5213
      5211      5209      5212      5214      5211      5209      5212      5215
      5212      5215      5218      5219      5212      5215      5218      5220
      5213      5212      5215      5216      5213      5212      5215      5217
      5213      5212      5215      5218      5214      5212      5215      5216
      5214      5212      5215      5217      5214      5212      5215      5218
      5215      5218      5220      5221      5215      5218      5220      5222
      5216      5215      5218      5219      5216      5215      5218      5220
      5217      5215      5218      5219      5217      5215      5218      5220
      5218      5220      5222      5223      5218      5220      5222      5224
      5218      5220      5222      5225      5219      5218      5220      5221
      5219      5218      5220      5222      5220      5222      5225      5226
      5220      5222      5225      5227      5220      5222      5225      5228
      5221      5220      5222      5223      5221      5220      5222      5224
      5221      5220      5222      5225      5222      5225      5228      5229
      5222      5225      5228      5230      5222      5225      5228      5231
      5223      5222      5225      5226      5223      5222      5225      5227
      5223      5222      5225      5228      5224      5222      5225      5226
      5224      5222      5225      5227      5224      5222      5225      5228
      5225      5228      5231      5232      5225      5228      5231      5233
      5225      5228      5231      5234      5226      5225      5228      5229
      5226      5225      5228      5230      5226      5225      5228      5231
      5227      5225      5228      5229      5227      5225      5228      5230
      5227      5225      5228      5231      5228      5231      5234      5235
      5228      5231      5234      5236      5228      5231      5234      5237
      5229      5228      5231      5232      5229      5228      5231      5233
      5229      5228      5231      5234      5230      5228      5231      5232
      5230      5228      5231      5233      5230      5228      5231      5234
      5231      5234      5237      5238      5231      5234      5237      5239
      5231      5234      5237      5240      5232      5231      5234      5235
      5232      5231      5234      5236      5232      5231      5234      5237
      5233      5231      5234      5235      5233      5231      5234      5236
      5233      5231      5234      5237      5234      5237      5240      5241
      5234      5237      5240      5242      5234      5237      5240      5243
      5235      5234      5237      5238      5235      5234      5237      5239
      5235      5234      5237      5240      5236      5234      5237      5238
      5236      5234      5237      5239      5236      5234      5237      5240
      5237      5240      5243      5244      5237      5240      5243      5245
      5237      5240      5243      5246      5238      5237      5240      5241
      5238      5237      5240      5242      5238      5237      5240      5243
      5239      5237      5240      5241      5239      5237      5240      5242
      5239      5237      5240      5243      5241      5240      5243      5244
      5241      5240      5243      5245      5241      5240      5243      5246
      5242      5240      5243      5244      5242      5240      5243      5245
      5242      5240      5243      5246      5247      5250      5253      5254
      5247      5250      5253      5255      5247      5250      5253      5256
      5248      5247      5250      5251      5248      5247      5250      5252
      5248      5247      5250      5253      5249      5247      5250      5251
      5249      5247      5250      5252      5249      5247      5250      5253
      5250      5253      5256      5257      5250      5253      5256      5258
      5250      5253      5256      5259      5251      5250      5253      5254
      5251      5250      5253      5255      5251      5250      5253      5256
      5252      5250      5253      5254      5252      5250      5253      5255
      5252      5250      5253      5256      5253      5256      5259      5260
      5253      5256      5259      5261      5253      5256      5259      5262
      5254      5253      5256      5257      5254      5253      5256      5258
      5254      5253      5256      5259      5255      5253      5256      5257
      5255      5253      5256      5258      5255      5253      5256      5259
      5256      5259      5262      5263      5256      5259      5262      5264
      5256      5259      5262      5265      5257      5256      5259      5260
      5257      5256      5259      5261      5257      5256      5259      5262
      5258      5256      5259      5260      5258      5256      5259      5261
      5258      5256      5259      5262      5259      5262      5265      5266
      5259      5262      5265      5267      5259      5262      5265      5268
      5260      5259      5262      5263      5260      5259      5262      5264
      5260      5259      5262      5265      5261      5259      5262      5263
      5261      5259      5262      5264      5261      5259      5262      5265
      5262      5265      5268      5269      5262      5265      5268      5270
      5262      5265      5268      5271      5263      5262      5265      5266
      5263      5262      5265      5267      5263      5262      5265      5268
      5264      5262      5265      5266      5264      5262      5265      5267
      5264      5262      5265      5268      5265      5268      5271      5272
      5265      5268      5271      5273      5265      5268      5271      5274
      5266      5265      5268      5269      5266      5265      5268      5270
      5266      5265      5268      5271      5267      5265      5268      5269
      5267      5265      5268      5270      5267      5265      5268      5271
      5268      5271      5274      5275      5268      5271      5274      5276
      5268      5271      5274      5277      5269      5268      5271      5272
      5269      5268      5271      5273      5269      5268      5271      5274
      5270      5268      5271      5272      5270      5268      5271      5273
      5270      5268      5271      5274      5271      5274      5277      5278
      5271      5274      5277      5279      5271      5274      5277      5280
      5272      5271      5274      5275      5272      5271      5274      5276
      5272      5271      5274      5277      5273      5271      5274      5275
      5273      5271      5274      5276      5273      5271      5274      5277
      5274      5277      5280      5281      5274      5277      5280      5282
      5274      5277      5280      5283      5275      5274      5277      5278
      5275      5274      5277      5279      5275      5274      5277      5280
      5276      5274      5277      5278      5276      5274      5277      5279
      5276      5274      5277      5280      5277      5280      5283      5284
      5277      5280      5283      5285      5277      5280      5283      5286
      5278      5277      5280      5281      5278      5277      5280      5282
      5278      5277      5280      5283      5279      5277      5280      5281
      5279      5277      5280      5282      5279      5277      5280      5283
      5280      5283      5286      5287      5280      5283      5286      5288
      5280      5283      5286      5289      5281      5280      5283      5284
      5281      5280      5283      5285      5281      5280      5283      5286
      5282      5280      5283      5284      5282      5280      5283      5285
      5282      5280      5283      5286      5284      5283      5286      5287
      5284      5283      5286      5288      5284      5283      5286      5289
      5285      5283      5286      5287      5285      5283      5286      5288
      5285      5283      5286      5289      5290      5291      5306      5307
      5290      5291      5306      5308      5290      5291      5306      5312
      5291      5290      5294      5295      5291      5290      5294      5296
      5291      5290      5294      5297      5291      5290      5298      5299
      5291      5290      5298      5300      5291      5290      5298      5301
      5291      5290      5302      5303      5291      5290      5302      5304
      5291      5290      5302      5305      5291      5306      5312      5309
      5292      5291      5290      5294      5292      5291      5290      5298
      5292      5291      5290      5302      5292      5291      5306      5307
      5292      5291      5306      5308      5292      5291      5306      5312
      5293      5291      5290      5294      5293      5291      5290      5298
      5293      5291      5290      5302      5293      5291      5306      5307
      5293      5291      5306      5308      5293      5291      5306      5312
      5294      5290      5291      5306      5294      5290      5298      5299
      5294      5290      5298      5300      5294      5290      5298      5301
      5294      5290      5302      5303      5294      5290      5302      5304
      5294      5290      5302      5305      5295      5294      5290      5298
      5295      5294      5290      5302      5296      5294      5290      5298
      5296      5294      5290      5302      5297      5294      5290      5298
      5297      5294      5290      5302      5298      5290      5291      5306
      5298      5290      5302      5303      5298      5290      5302      5304
      5298      5290      5302      5305      5299      5298      5290      5302
      5300      5298      5290      5302      5301      5298      5290      5302
      5302      5290      5291      5306      5306      5312      5309      5310
      5306      5312      5309      5311      5306      5312      5309      5313
      5307      5306      5312      5309      5308      5306      5312      5309
      5309      5313      5314      5315      5309      5313      5314      5316
      5309      5313      5314      5317      5310      5309      5313      5314
      5311      5309      5313      5314      5312      5309      5313      5314
      5313      5314      5317      5318      5313      5314      5317      5319
      5313      5314      5317      5325      5314      5317      5319      5320
      5314      5317      5325      5326      5314      5317      5325      5327
      5314      5317      5325      5328      5315      5314      5317      5318
      5315      5314      5317      5319      5315      5314      5317      5325
      5316      5314      5317      5318      5316      5314      5317      5319
      5316      5314      5317      5325      5317      5319      5320      5321
      5317      5319      5320      5322      5317      5325      5328      5329
      5318      5317      5319      5320      5318      5317      5325      5326
      5318      5317      5325      5327      5318      5317      5325      5328
      5319      5317      5325      5326      5319      5317      5325      5327
      5319      5317      5325      5328      5319      5320      5322      5323
      5319      5320      5322      5324      5319      5320      5322      5334
      5320      5319      5317      5325      5320      5322      5334      5335
      5320      5322      5334      5336      5320      5322      5334      5337
      5321      5320      5322      5323      5321      5320      5322      5324
      5321      5320      5322      5334      5322      5334      5337      5338
      5322      5334      5337      5339      5322      5334      5337      5340
      5323      5322      5334      5335      5323      5322      5334      5336
      5323      5322      5334      5337      5324      5322      5334      5335
      5324      5322      5334      5336      5324      5322      5334      5337
      5325      5328      5329      5330      5325      5328      5329      5331
      5326      5325      5328      5329      5327      5325      5328      5329
      5328      5329      5331      5332      5328      5329      5331      5333
      5328      5329      5331      5381      5329      5331      5381      5382
      5329      5331      5381      5383      5329      5331      5381      5384
      5330      5329      5331      5332      5330      5329      5331      5333
      5330      5329      5331      5381      5331      5381      5384      5385
      5331      5381      5384      5386      5331      5381      5384      5387
      5332      5331      5381      5382      5332      5331      5381      5383
      5332      5331      5381      5384      5333      5331      5381      5382
      5333      5331      5381      5383      5333      5331      5381      5384
      5334      5337      5340      5341      5334      5337      5340      5342
      5334      5337      5340      5343      5335      5334      5337      5338
      5335      5334      5337      5339      5335      5334      5337      5340
      5336      5334      5337      5338      5336      5334      5337      5339
      5336      5334      5337      5340      5337      5340      5343      5344
      5337      5340      5343      5345      5337      5340      5343      5346
      5338      5337      5340      5341      5338      5337      5340      5342
      5338      5337      5340      5343      5339      5337      5340      5341
      5339      5337      5340      5342      5339      5337      5340      5343
      5340      5343      5346      5347      5340      5343      5346      5348
      5340      5343      5346      5349      5341      5340      5343      5344
      5341      5340      5343      5345      5341      5340      5343      5346
      5342      5340      5343      5344      5342      5340      5343      5345
      5342      5340      5343      5346      5343      5346      5349      5350
      5343      5346      5349      5351      5343      5346      5349      5352
      5344      5343      5346      5347      5344      5343      5346      5348
      5344      5343      5346      5349      5345      5343      5346      5347
      5345      5343      5346      5348      5345      5343      5346      5349
      5346      5349      5352      5353      5346      5349      5352      5354
      5347      5346      5349      5350      5347      5346      5349      5351
      5347      5346      5349      5352      5348      5346      5349      5350
      5348      5346      5349      5351      5348      5346      5349      5352
      5349      5352      5354      5355      5349      5352      5354      5356
      5350      5349      5352      5353      5350      5349      5352      5354
      5351      5349      5352      5353      5351      5349      5352      5354
      5352      5354      5356      5357      5352      5354      5356      5358
      5352      5354      5356      5359      5353      5352      5354      5355
      5353      5352      5354      5356      5354      5356      5359      5360
      5354      5356      5359      5361      5354      5356      5359      5362
      5355      5354      5356      5357      5355      5354      5356      5358
      5355      5354      5356      5359      5356      5359      5362      5363
      5356      5359      5362      5364      5356      5359      5362      5365
      5357      5356      5359      5360      5357      5356      5359      5361
      5357      5356      5359      5362      5358      5356      5359      5360
      5358      5356      5359      5361      5358      5356      5359      5362
      5359      5362      5365      5366      5359      5362      5365      5367
      5359      5362      5365      5368      5360      5359      5362      5363
      5360      5359      5362      5364      5360      5359      5362      5365
      5361      5359      5362      5363      5361      5359      5362      5364
      5361      5359      5362      5365      5362      5365      5368      5369
      5362      5365      5368      5370      5362      5365      5368      5371
      5363      5362      5365      5366      5363      5362      5365      5367
      5363      5362      5365      5368      5364      5362      5365      5366
      5364      5362      5365      5367      5364      5362      5365      5368
      5365      5368      5371      5372      5365      5368      5371      5373
      5365      5368      5371      5374      5366      5365      5368      5369
      5366      5365      5368      5370      5366      5365      5368      5371
      5367      5365      5368      5369      5367      5365      5368      5370
      5367      5365      5368      5371      5368      5371      5374      5375
      5368      5371      5374      5376      5368      5371      5374      5377
      5369      5368      5371      5372      5369      5368      5371      5373
      5369      5368      5371      5374      5370      5368      5371      5372
      5370      5368      5371      5373      5370      5368      5371      5374
      5371      5374      5377      5378      5371      5374      5377      5379
      5371      5374      5377      5380      5372      5371      5374      5375
      5372      5371      5374      5376      5372      5371      5374      5377
      5373      5371      5374      5375      5373      5371      5374      5376
      5373      5371      5374      5377      5375      5374      5377      5378
      5375      5374      5377      5379      5375      5374      5377      5380
      5376      5374      5377      5378      5376      5374      5377      5379
      5376      5374      5377      5380      5381      5384      5387      5388
      5381      5384      5387      5389      5381      5384      5387      5390
      5382      5381      5384      5385      5382      5381      5384      5386
      5382      5381      5384      5387      5383      5381      5384      5385
      5383      5381      5384      5386      5383      5381      5384      5387
      5384      5387      5390      5391      5384      5387      5390      5392
      5384      5387      5390      5393      5385      5384      5387      5388
      5385      5384      5387      5389      5385      5384      5387      5390
      5386      5384      5387      5388      5386      5384      5387      5389
      5386      5384      5387      5390      5387      5390      5393      5394
      5387      5390      5393      5395      5387      5390      5393      5396
      5388      5387      5390      5391      5388      5387      5390      5392
      5388      5387      5390      5393      5389      5387      5390      5391
      5389      5387      5390      5392      5389      5387      5390      5393
      5390      5393      5396      5397      5390      5393      5396      5398
      5390      5393      5396      5399      5391      5390      5393      5394
      5391      5390      5393      5395      5391      5390      5393      5396
      5392      5390      5393      5394      5392      5390      5393      5395
      5392      5390      5393      5396      5393      5396      5399      5400
      5393      5396      5399      5401      5393      5396      5399      5402
      5394      5393      5396      5397      5394      5393      5396      5398
      5394      5393      5396      5399      5395      5393      5396      5397
      5395      5393      5396      5398      5395      5393      5396      5399
      5396      5399      5402      5403      5396      5399      5402      5404
      5396      5399      5402      5405      5397      5396      5399      5400
      5397      5396      5399      5401      5397      5396      5399      5402
      5398      5396      5399      5400      5398      5396      5399      5401
      5398      5396      5399      5402      5399      5402      5405      5406
      5399      5402      5405      5407      5399      5402      5405      5408
      5400      5399      5402      5403      5400      5399      5402      5404
      5400      5399      5402      5405      5401      5399      5402      5403
      5401      5399      5402      5404      5401      5399      5402      5405
      5402      5405      5408      5409      5402      5405      5408      5410
      5402      5405      5408      5411      5403      5402      5405      5406
      5403      5402      5405      5407      5403      5402      5405      5408
      5404      5402      5405      5406      5404      5402      5405      5407
      5404      5402      5405      5408      5405      5408      5411      5412
      5405      5408      5411      5413      5405      5408      5411      5414
      5406      5405      5408      5409      5406      5405      5408      5410
      5406      5405      5408      5411      5407      5405      5408      5409
      5407      5405      5408      5410      5407      5405      5408      5411
      5408      5411      5414      5415      5408      5411      5414      5416
      5408      5411      5414      5417      5409      5408      5411      5412
      5409      5408      5411      5413      5409      5408      5411      5414
      5410      5408      5411      5412      5410      5408      5411      5413
      5410      5408      5411      5414      5411      5414      5417      5418
      5411      5414      5417      5419      5411      5414      5417      5420
      5412      5411      5414      5415      5412      5411      5414      5416
      5412      5411      5414      5417      5413      5411      5414      5415
      5413      5411      5414      5416      5413      5411      5414      5417
      5414      5417      5420      5421      5414      5417      5420      5422
      5414      5417      5420      5423      5415      5414      5417      5418
      5415      5414      5417      5419      5415      5414      5417      5420
      5416      5414      5417      5418      5416      5414      5417      5419
      5416      5414      5417      5420      5418      5417      5420      5421
      5418      5417      5420      5422      5418      5417      5420      5423
      5419      5417      5420      5421      5419      5417      5420      5422
      5419      5417      5420      5423      5424      5425      5440      5441
      5424      5425      5440      5442      5424      5425      5440      5446
      5425      5424      5428      5429      5425      5424      5428      5430
      5425      5424      5428      5431      5425      5424      5432      5433
      5425      5424      5432      5434      5425      5424      5432      5435
      5425      5424      5436      5437      5425      5424      5436      5438
      5425      5424      5436      5439      5425      5440      5446      5443
      5426      5425      5424      5428      5426      5425      5424      5432
      5426      5425      5424      5436      5426      5425      5440      5441
      5426      5425      5440      5442      5426      5425      5440      5446
      5427      5425      5424      5428      5427      5425      5424      5432
      5427      5425      5424      5436      5427      5425      5440      5441
      5427      5425      5440      5442      5427      5425      5440      5446
      5428      5424      5425      5440      5428      5424      5432      5433
      5428      5424      5432      5434      5428      5424      5432      5435
      5428      5424      5436      5437      5428      5424      5436      5438
      5428      5424      5436      5439      5429      5428      5424      5432
      5429      5428      5424      5436      5430      5428      5424      5432
      5430      5428      5424      5436      5431      5428      5424      5432
      5431      5428      5424      5436      5432      5424      5425      5440
      5432      5424      5436      5437      5432      5424      5436      5438
      5432      5424      5436      5439      5433      5432      5424      5436
      5434      5432      5424      5436      5435      5432      5424      5436
      5436      5424      5425      5440      5440      5446      5443      5444
      5440      5446      5443      5445      5440      5446      5443      5447
      5441      5440      5446      5443      5442      5440      5446      5443
      5443      5447      5448      5449      5443      5447      5448      5450
      5443      5447      5448      5451      5444      5443      5447      5448
      5445      5443      5447      5448      5446      5443      5447      5448
      5447      5448      5451      5452      5447      5448      5451      5453
      5447      5448      5451      5459      5448      5451      5453      5454
      5448      5451      5459      5460      5448      5451      5459      5461
      5448      5451      5459      5462      5449      5448      5451      5452
      5449      5448      5451      5453      5449      5448      5451      5459
      5450      5448      5451      5452      5450      5448      5451      5453
      5450      5448      5451      5459      5451      5453      5454      5455
      5451      5453      5454      5456      5451      5459      5462      5463
      5452      5451      5453      5454      5452      5451      5459      5460
      5452      5451      5459      5461      5452      5451      5459      5462
      5453      5451      5459      5460      5453      5451      5459      5461
      5453      5451      5459      5462      5453      5454      5456      5457
      5453      5454      5456      5458      5453      5454      5456      5468
      5454      5453      5451      5459      5454      5456      5468      5469
      5454      5456      5468      5470      5454      5456      5468      5471
      5455      5454      5456      5457      5455      5454      5456      5458
      5455      5454      5456      5468      5456      5468      5471      5472
      5456      5468      5471      5473      5456      5468      5471      5474
      5457      5456      5468      5469      5457      5456      5468      5470
      5457      5456      5468      5471      5458      5456      5468      5469
      5458      5456      5468      5470      5458      5456      5468      5471
      5459      5462      5463      5464      5459      5462      5463      5465
      5460      5459      5462      5463      5461      5459      5462      5463
      5462      5463      5465      5466      5462      5463      5465      5467
      5462      5463      5465      5515      5463      5465      5515      5516
      5463      5465      5515      5517      5463      5465      5515      5518
      5464      5463      5465      5466      5464      5463      5465      5467
      5464      5463      5465      5515      5465      5515      5518      5519
      5465      5515      5518      5520      5465      5515      5518      5521
      5466      5465      5515      5516      5466      5465      5515      5517
      5466      5465      5515      5518      5467      5465      5515      5516
      5467      5465      5515      5517      5467      5465      5515      5518
      5468      5471      5474      5475      5468      5471      5474      5476
      5468      5471      5474      5477      5469      5468      5471      5472
      5469      5468      5471      5473      5469      5468      5471      5474
      5470      5468      5471      5472      5470      5468      5471      5473
      5470      5468      5471      5474      5471      5474      5477      5478
      5471      5474      5477      5479      5471      5474      5477      5480
      5472      5471      5474      5475      5472      5471      5474      5476
      5472      5471      5474      5477      5473      5471      5474      5475
      5473      5471      5474      5476      5473      5471      5474      5477
      5474      5477      5480      5481      5474      5477      5480      5482
      5474      5477      5480      5483      5475      5474      5477      5478
      5475      5474      5477      5479      5475      5474      5477      5480
      5476      5474      5477      5478      5476      5474      5477      5479
      5476      5474      5477      5480      5477      5480      5483      5484
      5477      5480      5483      5485      5477      5480      5483      5486
      5478      5477      5480      5481      5478      5477      5480      5482
      5478      5477      5480      5483      5479      5477      5480      5481
      5479      5477      5480      5482      5479      5477      5480      5483
      5480      5483      5486      5487      5480      5483      5486      5488
      5481      5480      5483      5484      5481      5480      5483      5485
      5481      5480      5483      5486      5482      5480      5483      5484
      5482      5480      5483      5485      5482      5480      5483      5486
      5483      5486      5488      5489      5483      5486      5488      5490
      5484      5483      5486      5487      5484      5483      5486      5488
      5485      5483      5486      5487      5485      5483      5486      5488
      5486      5488      5490      5491      5486      5488      5490      5492
      5486      5488      5490      5493      5487      5486      5488      5489
      5487      5486      5488      5490      5488      5490      5493      5494
      5488      5490      5493      5495      5488      5490      5493      5496
      5489      5488      5490      5491      5489      5488      5490      5492
      5489      5488      5490      5493      5490      5493      5496      5497
      5490      5493      5496      5498      5490      5493      5496      5499
      5491      5490      5493      5494      5491      5490      5493      5495
      5491      5490      5493      5496      5492      5490      5493      5494
      5492      5490      5493      5495      5492      5490      5493      5496
      5493      5496      5499      5500      5493      5496      5499      5501
      5493      5496      5499      5502      5494      5493      5496      5497
      5494      5493      5496      5498      5494      5493      5496      5499
      5495      5493      5496      5497      5495      5493      5496      5498
      5495      5493      5496      5499      5496      5499      5502      5503
      5496      5499      5502      5504      5496      5499      5502      5505
      5497      5496      5499      5500      5497      5496      5499      5501
      5497      5496      5499      5502      5498      5496      5499      5500
      5498      5496      5499      5501      5498      5496      5499      5502
      5499      5502      5505      5506      5499      5502      5505      5507
      5499      5502      5505      5508      5500      5499      5502      5503
      5500      5499      5502      5504      5500      5499      5502      5505
      5501      5499      5502      5503      5501      5499      5502      5504
      5501      5499      5502      5505      5502      5505      5508      5509
      5502      5505      5508      5510      5502      5505      5508      5511
      5503      5502      5505      5506      5503      5502      5505      5507
      5503      5502      5505      5508      5504      5502      5505      5506
      5504      5502      5505      5507      5504      5502      5505      5508
      5505      5508      5511      5512      5505      5508      5511      5513
      5505      5508      5511      5514      5506      5505      5508      5509
      5506      5505      5508      5510      5506      5505      5508      5511
      5507      5505      5508      5509      5507      5505      5508      5510
      5507      5505      5508      5511      5509      5508      5511      5512
      5509      5508      5511      5513      5509      5508      5511      5514
      5510      5508      5511      5512      5510      5508      5511      5513
      5510      5508      5511      5514      5515      5518      5521      5522
      5515      5518      5521      5523      5515      5518      5521      5524
      5516      5515      5518      5519      5516      5515      5518      5520
      5516      5515      5518      5521      5517      5515      5518      5519
      5517      5515      5518      5520      5517      5515      5518      5521
      5518      5521      5524      5525      5518      5521      5524      5526
      5518      5521      5524      5527      5519      5518      5521      5522
      5519      5518      5521      5523      5519      5518      5521      5524
      5520      5518      5521      5522      5520      5518      5521      5523
      5520      5518      5521      5524      5521      5524      5527      5528
      5521      5524      5527      5529      5521      5524      5527      5530
      5522      5521      5524      5525      5522      5521      5524      5526
      5522      5521      5524      5527      5523      5521      5524      5525
      5523      5521      5524      5526      5523      5521      5524      5527
      5524      5527      5530      5531      5524      5527      5530      5532
      5524      5527      5530      5533      5525      5524      5527      5528
      5525      5524      5527      5529      5525      5524      5527      5530
      5526      5524      5527      5528      5526      5524      5527      5529
      5526      5524      5527      5530      5527      5530      5533      5534
      5527      5530      5533      5535      5527      5530      5533      5536
      5528      5527      5530      5531      5528      5527      5530      5532
      5528      5527      5530      5533      5529      5527      5530      5531
      5529      5527      5530      5532      5529      5527      5530      5533
      5530      5533      5536      5537      5530      5533      5536      5538
      5530      5533      5536      5539      5531      5530      5533      5534
      5531      5530      5533      5535      5531      5530      5533      5536
      5532      5530      5533      5534      5532      5530      5533      5535
      5532      5530      5533      5536      5533      5536      5539      5540
      5533      5536      5539      5541      5533      5536      5539      5542
      5534      5533      5536      5537      5534      5533      5536      5538
      5534      5533      5536      5539      5535      5533      5536      5537
      5535      5533      5536      5538      5535      5533      5536      5539
      5536      5539      5542      5543      5536      5539      5542      5544
      5536      5539      5542      5545      5537      5536      5539      5540
      5537      5536      5539      5541      5537      5536      5539      5542
      5538      5536      5539      5540      5538      5536      5539      5541
      5538      5536      5539      5542      5539      5542      5545      5546
      5539      5542      5545      5547      5539      5542      5545      5548
      5540      5539      5542      5543      5540      5539      5542      5544
      5540      5539      5542      5545      5541      5539      5542      5543
      5541      5539      5542      5544      5541      5539      5542      5545
      5542      5545      5548      5549      5542      5545      5548      5550
      5542      5545      5548      5551      5543      5542      5545      5546
      5543      5542      5545      5547      5543      5542      5545      5548
      5544      5542      5545      5546      5544      5542      5545      5547
      5544      5542      5545      5548      5545      5548      5551      5552
      5545      5548      5551      5553      5545      5548      5551      5554
      5546      5545      5548      5549      5546      5545      5548      5550
      5546      5545      5548      5551      5547      5545      5548      5549
      5547      5545      5548      5550      5547      5545      5548      5551
      5548      5551      5554      5555      5548      5551      5554      5556
      5548      5551      5554      5557      5549      5548      5551      5552
      5549      5548      5551      5553      5549      5548      5551      5554
      5550      5548      5551      5552      5550      5548      5551      5553
      5550      5548      5551      5554      5552      5551      5554      5555
      5552      5551      5554      5556      5552      5551      5554      5557
      5553      5551      5554      5555      5553      5551      5554      5556
      5553      5551      5554      5557      5558      5559      5574      5575
      5558      5559      5574      5576      5558      5559      5574      5580
      5559      5558      5562      5563      5559      5558      5562      5564
      5559      5558      5562      5565      5559      5558      5566      5567
      5559      5558      5566      5568      5559      5558      5566      5569
      5559      5558      5570      5571      5559      5558      5570      5572
      5559      5558      5570      5573      5559      5574      5580      5577
      5560      5559      5558      5562      5560      5559      5558      5566
      5560      5559      5558      5570      5560      5559      5574      5575
      5560      5559      5574      5576      5560      5559      5574      5580
      5561      5559      5558      5562      5561      5559      5558      5566
      5561      5559      5558      5570      5561      5559      5574      5575
      5561      5559      5574      5576      5561      5559      5574      5580
      5562      5558      5559      5574      5562      5558      5566      5567
      5562      5558      5566      5568      5562      5558      5566      5569
      5562      5558      5570      5571      5562      5558      5570      5572
      5562      5558      5570      5573      5563      5562      5558      5566
      5563      5562      5558      5570      5564      5562      5558      5566
      5564      5562      5558      5570      5565      5562      5558      5566
      5565      5562      5558      5570      5566      5558      5559      5574
      5566      5558      5570      5571      5566      5558      5570      5572
      5566      5558      5570      5573      5567      5566      5558      5570
      5568      5566      5558      5570      5569      5566      5558      5570
      5570      5558      5559      5574      5574      5580      5577      5578
      5574      5580      5577      5579      5574      5580      5577      5581
      5575      5574      5580      5577      5576      5574      5580      5577
      5577      5581      5582      5583      5577      5581      5582      5584
      5577      5581      5582      5585      5578      5577      5581      5582
      5579      5577      5581      5582      5580      5577      5581      5582
      5581      5582      5585      5586      5581      5582      5585      5587
      5581      5582      5585      5593      5582      5585      5587      5588
      5582      5585      5593      5594      5582      5585      5593      5595
      5582      5585      5593      5596      5583      5582      5585      5586
      5583      5582      5585      5587      5583      5582      5585      5593
      5584      5582      5585      5586      5584      5582      5585      5587
      5584      5582      5585      5593      5585      5587      5588      5589
      5585      5587      5588      5590      5585      5593      5596      5597
      5586      5585      5587      5588      5586      5585      5593      5594
      5586      5585      5593      5595      5586      5585      5593      5596
      5587      5585      5593      5594      5587      5585      5593      5595
      5587      5585      5593      5596      5587      5588      5590      5591
      5587      5588      5590      5592      5587      5588      5590      5602
      5588      5587      5585      5593      5588      5590      5602      5603
      5588      5590      5602      5604      5588      5590      5602      5605
      5589      5588      5590      5591      5589      5588      5590      5592
      5589      5588      5590      5602      5590      5602      5605      5606
      5590      5602      5605      5607      5590      5602      5605      5608
      5591      5590      5602      5603      5591      5590      5602      5604
      5591      5590      5602      5605      5592      5590      5602      5603
      5592      5590      5602      5604      5592      5590      5602      5605
      5593      5596      5597      5598      5593      5596      5597      5599
      5594      5593      5596      5597      5595      5593      5596      5597
      5596      5597      5599      5600      5596      5597      5599      5601
      5596      5597      5599      5649      5597      5599      5649      5650
      5597      5599      5649      5651      5597      5599      5649      5652
      5598      5597      5599      5600      5598      5597      5599      5601
      5598      5597      5599      5649      5599      5649      5652      5653
      5599      5649      5652      5654      5599      5649      5652      5655
      5600      5599      5649      5650      5600      5599      5649      5651
      5600      5599      5649      5652      5601      5599      5649      5650
      5601      5599      5649      5651      5601      5599      5649      5652
      5602      5605      5608      5609      5602      5605      5608      5610
      5602      5605      5608      5611      5603      5602      5605      5606
      5603      5602      5605      5607      5603      5602      5605      5608
      5604      5602      5605      5606      5604      5602      5605      5607
      5604      5602      5605      5608      5605      5608      5611      5612
      5605      5608      5611      5613      5605      5608      5611      5614
      5606      5605      5608      5609      5606      5605      5608      5610
      5606      5605      5608      5611      5607      5605      5608      5609
      5607      5605      5608      5610      5607      5605      5608      5611
      5608      5611      5614      5615      5608      5611      5614      5616
      5608      5611      5614      5617      5609      5608      5611      5612
      5609      5608      5611      5613      5609      5608      5611      5614
      5610      5608      5611      5612      5610      5608      5611      5613
      5610      5608      5611      5614      5611      5614      5617      5618
      5611      5614      5617      5619      5611      5614      5617      5620
      5612      5611      5614      5615      5612      5611      5614      5616
      5612      5611      5614      5617      5613      5611      5614      5615
      5613      5611      5614      5616      5613      5611      5614      5617
      5614      5617      5620      5621      5614      5617      5620      5622
      5615      5614      5617      5618      5615      5614      5617      5619
      5615      5614      5617      5620      5616      5614      5617      5618
      5616      5614      5617      5619      5616      5614      5617      5620
      5617      5620      5622      5623      5617      5620      5622      5624
      5618      5617      5620      5621      5618      5617      5620      5622
      5619      5617      5620      5621      5619      5617      5620      5622
      5620      5622      5624      5625      5620      5622      5624      5626
      5620      5622      5624      5627      5621      5620      5622      5623
      5621      5620      5622      5624      5622      5624      5627      5628
      5622      5624      5627      5629      5622      5624      5627      5630
      5623      5622      5624      5625      5623      5622      5624      5626
      5623      5622      5624      5627      5624      5627      5630      5631
      5624      5627      5630      5632      5624      5627      5630      5633
      5625      5624      5627      5628      5625      5624      5627      5629
      5625      5624      5627      5630      5626      5624      5627      5628
      5626      5624      5627      5629      5626      5624      5627      5630
      5627      5630      5633      5634      5627      5630      5633      5635
      5627      5630      5633      5636      5628      5627      5630      5631
      5628      5627      5630      5632      5628      5627      5630      5633
      5629      5627      5630      5631      5629      5627      5630      5632
      5629      5627      5630      5633      5630      5633      5636      5637
      5630      5633      5636      5638      5630      5633      5636      5639
      5631      5630      5633      5634      5631      5630      5633      5635
      5631      5630      5633      5636      5632      5630      5633      5634
      5632      5630      5633      5635      5632      5630      5633      5636
      5633      5636      5639      5640      5633      5636      5639      5641
      5633      5636      5639      5642      5634      5633      5636      5637
      5634      5633      5636      5638      5634      5633      5636      5639
      5635      5633      5636      5637      5635      5633      5636      5638
      5635      5633      5636      5639      5636      5639      5642      5643
      5636      5639      5642      5644      5636      5639      5642      5645
      5637      5636      5639      5640      5637      5636      5639      5641
      5637      5636      5639      5642      5638      5636      5639      5640
      5638      5636      5639      5641      5638      5636      5639      5642
      5639      5642      5645      5646      5639      5642      5645      5647
      5639      5642      5645      5648      5640      5639      5642      5643
      5640      5639      5642      5644      5640      5639      5642      5645
      5641      5639      5642      5643      5641      5639      5642      5644
      5641      5639      5642      5645      5643      5642      5645      5646
      5643      5642      5645      5647      5643      5642      5645      5648
      5644      5642      5645      5646      5644      5642      5645      5647
      5644      5642      5645      5648      5649      5652      5655      5656
      5649      5652      5655      5657      5649      5652      5655      5658
      5650      5649      5652      5653      5650      5649      5652      5654
      5650      5649      5652      5655      5651      5649      5652      5653
      5651      5649      5652      5654      5651      5649      5652      5655
      5652      5655      5658      5659      5652      5655      5658      5660
      5652      5655      5658      5661      5653      5652      5655      5656
      5653      5652      5655      5657      5653      5652      5655      5658
      5654      5652      5655      5656      5654      5652      5655      5657
      5654      5652      5655      5658      5655      5658      5661      5662
      5655      5658      5661      5663      5655      5658      5661      5664
      5656      5655      5658      5659      5656      5655      5658      5660
      5656      5655      5658      5661      5657      5655      5658      5659
      5657      5655      5658      5660      5657      5655      5658      5661
      5658      5661      5664      5665      5658      5661      5664      5666
      5658      5661      5664      5667      5659      5658      5661      5662
      5659      5658      5661      5663      5659      5658      5661      5664
      5660      5658      5661      5662      5660      5658      5661      5663
      5660      5658      5661      5664      5661      5664      5667      5668
      5661      5664      5667      5669      5661      5664      5667      5670
      5662      5661      5664      5665      5662      5661      5664      5666
      5662      5661      5664      5667      5663      5661      5664      5665
      5663      5661      5664      5666      5663      5661      5664      5667
      5664      5667      5670      5671      5664      5667      5670      5672
      5664      5667      5670      5673      5665      5664      5667      5668
      5665      5664      5667      5669      5665      5664      5667      5670
      5666      5664      5667      5668      5666      5664      5667      5669
      5666      5664      5667      5670      5667      5670      5673      5674
      5667      5670      5673      5675      5667      5670      5673      5676
      5668      5667      5670      5671      5668      5667      5670      5672
      5668      5667      5670      5673      5669      5667      5670      5671
      5669      5667      5670      5672      5669      5667      5670      5673
      5670      5673      5676      5677      5670      5673      5676      5678
      5670      5673      5676      5679      5671      5670      5673      5674
      5671      5670      5673      5675      5671      5670      5673      5676
      5672      5670      5673      5674      5672      5670      5673      5675
      5672      5670      5673      5676      5673      5676      5679      5680
      5673      5676      5679      5681      5673      5676      5679      5682
      5674      5673      5676      5677      5674      5673      5676      5678
      5674      5673      5676      5679      5675      5673      5676      5677
      5675      5673      5676      5678      5675      5673      5676      5679
      5676      5679      5682      5683      5676      5679      5682      5684
      5676      5679      5682      5685      5677      5676      5679      5680
      5677      5676      5679      5681      5677      5676      5679      5682
      5678      5676      5679      5680      5678      5676      5679      5681
      5678      5676      5679      5682      5679      5682      5685      5686
      5679      5682      5685      5687      5679      5682      5685      5688
      5680      5679      5682      5683      5680      5679      5682      5684
      5680      5679      5682      5685      5681      5679      5682      5683
      5681      5679      5682      5684      5681      5679      5682      5685
      5682      5685      5688      5689      5682      5685      5688      5690
      5682      5685      5688      5691      5683      5682      5685      5686
      5683      5682      5685      5687      5683      5682      5685      5688
      5684      5682      5685      5686      5684      5682      5685      5687
      5684      5682      5685      5688      5686      5685      5688      5689
      5686      5685      5688      5690      5686      5685      5688      5691
      5687      5685      5688      5689      5687      5685      5688      5690
      5687      5685      5688      5691      5692      5693      5708      5709
      5692      5693      5708      5710      5692      5693      5708      5714
      5693      5692      5696      5697      5693      5692      5696      5698
      5693      5692      5696      5699      5693      5692      5700      5701
      5693      5692      5700      5702      5693      5692      5700      5703
      5693      5692      5704      5705      5693      5692      5704      5706
      5693      5692      5704      5707      5693      5708      5714      5711
      5694      5693      5692      5696      5694      5693      5692      5700
      5694      5693      5692      5704      5694      5693      5708      5709
      5694      5693      5708      5710      5694      5693      5708      5714
      5695      5693      5692      5696      5695      5693      5692      5700
      5695      5693      5692      5704      5695      5693      5708      5709
      5695      5693      5708      5710      5695      5693      5708      5714
      5696      5692      5693      5708      5696      5692      5700      5701
      5696      5692      5700      5702      5696      5692      5700      5703
      5696      5692      5704      5705      5696      5692      5704      5706
      5696      5692      5704      5707      5697      5696      5692      5700
      5697      5696      5692      5704      5698      5696      5692      5700
      5698      5696      5692      5704      5699      5696      5692      5700
      5699      5696      5692      5704      5700      5692      5693      5708
      5700      5692      5704      5705      5700      5692      5704      5706
      5700      5692      5704      5707      5701      5700      5692      5704
      5702      5700      5692      5704      5703      5700      5692      5704
      5704      5692      5693      5708      5708      5714      5711      5712
      5708      5714      5711      5713      5708      5714      5711      5715
      5709      5708      5714      5711      5710      5708      5714      5711
      5711      5715      5716      5717      5711      5715      5716      5718
      5711      5715      5716      5719      5712      5711      5715      5716
      5713      5711      5715      5716      5714      5711      5715      5716
      5715      5716      5719      5720      5715      5716      5719      5721
      5715      5716      5719      5727      5716      5719      5721      5722
      5716      5719      5727      5728      5716      5719      5727      5729
      5716      5719      5727      5730      5717      5716      5719      5720
      5717      5716      5719      5721      5717      5716      5719      5727
      5718      5716      5719      5720      5718      5716      5719      5721
      5718      5716      5719      5727      5719      5721      5722      5723
      5719      5721      5722      5724      5719      5727      5730      5731
      5720      5719      5721      5722      5720      5719      5727      5728
      5720      5719      5727      5729      5720      5719      5727      5730
      5721      5719      5727      5728      5721      5719      5727      5729
      5721      5719      5727      5730      5721      5722      5724      5725
      5721      5722      5724      5726      5721      5722      5724      5736
      5722      5721      5719      5727      5722      5724      5736      5737
      5722      5724      5736      5738      5722      5724      5736      5739
      5723      5722      5724      5725      5723      5722      5724      5726
      5723      5722      5724      5736      5724      5736      5739      5740
      5724      5736      5739      5741      5724      5736      5739      5742
      5725      5724      5736      5737      5725      5724      5736      5738
      5725      5724      5736      5739      5726      5724      5736      5737
      5726      5724      5736      5738      5726      5724      5736      5739
      5727      5730      5731      5732      5727      5730      5731      5733
      5728      5727      5730      5731      5729      5727      5730      5731
      5730      5731      5733      5734      5730      5731      5733      5735
      5730      5731      5733      5783      5731      5733      5783      5784
      5731      5733      5783      5785      5731      5733      5783      5786
      5732      5731      5733      5734      5732      5731      5733      5735
      5732      5731      5733      5783      5733      5783      5786      5787
      5733      5783      5786      5788      5733      5783      5786      5789
      5734      5733      5783      5784      5734      5733      5783      5785
      5734      5733      5783      5786      5735      5733      5783      5784
      5735      5733      5783      5785      5735      5733      5783      5786
      5736      5739      5742      5743      5736      5739      5742      5744
      5736      5739      5742      5745      5737      5736      5739      5740
      5737      5736      5739      5741      5737      5736      5739      5742
      5738      5736      5739      5740      5738      5736      5739      5741
      5738      5736      5739      5742      5739      5742      5745      5746
      5739      5742      5745      5747      5739      5742      5745      5748
      5740      5739      5742      5743      5740      5739      5742      5744
      5740      5739      5742      5745      5741      5739      5742      5743
      5741      5739      5742      5744      5741      5739      5742      5745
      5742      5745      5748      5749      5742      5745      5748      5750
      5742      5745      5748      5751      5743      5742      5745      5746
      5743      5742      5745      5747      5743      5742      5745      5748
      5744      5742      5745      5746      5744      5742      5745      5747
      5744      5742      5745      5748      5745      5748      5751      5752
      5745      5748      5751      5753      5745      5748      5751      5754
      5746      5745      5748      5749      5746      5745      5748      5750
      5746      5745      5748      5751      5747      5745      5748      5749
      5747      5745      5748      5750      5747      5745      5748      5751
      5748      5751      5754      5755      5748      5751      5754      5756
      5749      5748      5751      5752      5749      5748      5751      5753
      5749      5748      5751      5754      5750      5748      5751      5752
      5750      5748      5751      5753      5750      5748      5751      5754
      5751      5754      5756      5757      5751      5754      5756      5758
      5752      5751      5754      5755      5752      5751      5754      5756
      5753      5751      5754      5755      5753      5751      5754      5756
      5754      5756      5758      5759      5754      5756      5758      5760
      5754      5756      5758      5761      5755      5754      5756      5757
      5755      5754      5756      5758      5756      5758      5761      5762
      5756      5758      5761      5763      5756      5758      5761      5764
      5757      5756      5758      5759      5757      5756      5758      5760
      5757      5756      5758      5761      5758      5761      5764      5765
      5758      5761      5764      5766      5758      5761      5764      5767
      5759      5758      5761      5762      5759      5758      5761      5763
      5759      5758      5761      5764      5760      5758      5761      5762
      5760      5758      5761      5763      5760      5758      5761      5764
      5761      5764      5767      5768      5761      5764      5767      5769
      5761      5764      5767      5770      5762      5761      5764      5765
      5762      5761      5764      5766      5762      5761      5764      5767
      5763      5761      5764      5765      5763      5761      5764      5766
      5763      5761      5764      5767      5764      5767      5770      5771
      5764      5767      5770      5772      5764      5767      5770      5773
      5765      5764      5767      5768      5765      5764      5767      5769
      5765      5764      5767      5770      5766      5764      5767      5768
      5766      5764      5767      5769      5766      5764      5767      5770
      5767      5770      5773      5774      5767      5770      5773      5775
      5767      5770      5773      5776      5768      5767      5770      5771
      5768      5767      5770      5772      5768      5767      5770      5773
      5769      5767      5770      5771      5769      5767      5770      5772
      5769      5767      5770      5773      5770      5773      5776      5777
      5770      5773      5776      5778      5770      5773      5776      5779
      5771      5770      5773      5774      5771      5770      5773      5775
      5771      5770      5773      5776      5772      5770      5773      5774
      5772      5770      5773      5775      5772      5770      5773      5776
      5773      5776      5779      5780      5773      5776      5779      5781
      5773      5776      5779      5782      5774      5773      5776      5777
      5774      5773      5776      5778      5774      5773      5776      5779
      5775      5773      5776      5777      5775      5773      5776      5778
      5775      5773      5776      5779      5777      5776      5779      5780
      5777      5776      5779      5781      5777      5776      5779      5782
      5778      5776      5779      5780      5778      5776      5779      5781
      5778      5776      5779      5782      5783      5786      5789      5790
      5783      5786      5789      5791      5783      5786      5789      5792
      5784      5783      5786      5787      5784      5783      5786      5788
      5784      5783      5786      5789      5785      5783      5786      5787
      5785      5783      5786      5788      5785      5783      5786      5789
      5786      5789      5792      5793      5786      5789      5792      5794
      5786      5789      5792      5795      5787      5786      5789      5790
      5787      5786      5789      5791      5787      5786      5789      5792
      5788      5786      5789      5790      5788      5786      5789      5791
      5788      5786      5789      5792      5789      5792      5795      5796
      5789      5792      5795      5797      5789      5792      5795      5798
      5790      5789      5792      5793      5790      5789      5792      5794
      5790      5789      5792      5795      5791      5789      5792      5793
      5791      5789      5792      5794      5791      5789      5792      5795
      5792      5795      5798      5799      5792      5795      5798      5800
      5792      5795      5798      5801      5793      5792      5795      5796
      5793      5792      5795      5797      5793      5792      5795      5798
      5794      5792      5795      5796      5794      5792      5795      5797
      5794      5792      5795      5798      5795      5798      5801      5802
      5795      5798      5801      5803      5795      5798      5801      5804
      5796      5795      5798      5799      5796      5795      5798      5800
      5796      5795      5798      5801      5797      5795      5798      5799
      5797      5795      5798      5800      5797      5795      5798      5801
      5798      5801      5804      5805      5798      5801      5804      5806
      5798      5801      5804      5807      5799      5798      5801      5802
      5799      5798      5801      5803      5799      5798      5801      5804
      5800      5798      5801      5802      5800      5798      5801      5803
      5800      5798      5801      5804      5801      5804      5807      5808
      5801      5804      5807      5809      5801      5804      5807      5810
      5802      5801      5804      5805      5802      5801      5804      5806
      5802      5801      5804      5807      5803      5801      5804      5805
      5803      5801      5804      5806      5803      5801      5804      5807
      5804      5807      5810      5811      5804      5807      5810      5812
      5804      5807      5810      5813      5805      5804      5807      5808
      5805      5804      5807      5809      5805      5804      5807      5810
      5806      5804      5807      5808      5806      5804      5807      5809
      5806      5804      5807      5810      5807      5810      5813      5814
      5807      5810      5813      5815      5807      5810      5813      5816
      5808      5807      5810      5811      5808      5807      5810      5812
      5808      5807      5810      5813      5809      5807      5810      5811
      5809      5807      5810      5812      5809      5807      5810      5813
      5810      5813      5816      5817      5810      5813      5816      5818
      5810      5813      5816      5819      5811      5810      5813      5814
      5811      5810      5813      5815      5811      5810      5813      5816
      5812      5810      5813      5814      5812      5810      5813      5815
      5812      5810      5813      5816      5813      5816      5819      5820
      5813      5816      5819      5821      5813      5816      5819      5822
      5814      5813      5816      5817      5814      5813      5816      5818
      5814      5813      5816      5819      5815      5813      5816      5817
      5815      5813      5816      5818      5815      5813      5816      5819
      5816      5819      5822      5823      5816      5819      5822      5824
      5816      5819      5822      5825      5817      5816      5819      5820
      5817      5816      5819      5821      5817      5816      5819      5822
      5818      5816      5819      5820      5818      5816      5819      5821
      5818      5816      5819      5822      5820      5819      5822      5823
      5820      5819      5822      5824      5820      5819      5822      5825
      5821      5819      5822      5823      5821      5819      5822      5824
      5821      5819      5822      5825      5826      5827      5842      5843
      5826      5827      5842      5844      5826      5827      5842      5848
      5827      5826      5830      5831      5827      5826      5830      5832
      5827      5826      5830      5833      5827      5826      5834      5835
      5827      5826      5834      5836      5827      5826      5834      5837
      5827      5826      5838      5839      5827      5826      5838      5840
      5827      5826      5838      5841      5827      5842      5848      5845
      5828      5827      5826      5830      5828      5827      5826      5834
      5828      5827      5826      5838      5828      5827      5842      5843
      5828      5827      5842      5844      5828      5827      5842      5848
      5829      5827      5826      5830      5829      5827      5826      5834
      5829      5827      5826      5838      5829      5827      5842      5843
      5829      5827      5842      5844      5829      5827      5842      5848
      5830      5826      5827      5842      5830      5826      5834      5835
      5830      5826      5834      5836      5830      5826      5834      5837
      5830      5826      5838      5839      5830      5826      5838      5840
      5830      5826      5838      5841      5831      5830      5826      5834
      5831      5830      5826      5838      5832      5830      5826      5834
      5832      5830      5826      5838      5833      5830      5826      5834
      5833      5830      5826      5838      5834      5826      5827      5842
      5834      5826      5838      5839      5834      5826      5838      5840
      5834      5826      5838      5841      5835      5834      5826      5838
      5836      5834      5826      5838      5837      5834      5826      5838
      5838      5826      5827      5842      5842      5848      5845      5846
      5842      5848      5845      5847      5842      5848      5845      5849
      5843      5842      5848      5845      5844      5842      5848      5845
      5845      5849      5850      5851      5845      5849      5850      5852
      5845      5849      5850      5853      5846      5845      5849      5850
      5847      5845      5849      5850      5848      5845      5849      5850
      5849      5850      5853      5854      5849      5850      5853      5855
      5849      5850      5853      5861      5850      5853      5855      5856
      5850      5853      5861      5862      5850      5853      5861      5863
      5850      5853      5861      5864      5851      5850      5853      5854
      5851      5850      5853      5855      5851      5850      5853      5861
      5852      5850      5853      5854      5852      5850      5853      5855
      5852      5850      5853      5861      5853      5855      5856      5857
      5853      5855      5856      5858      5853      5861      5864      5865
      5854      5853      5855      5856      5854      5853      5861      5862
      5854      5853      5861      5863      5854      5853      5861      5864
      5855      5853      5861      5862      5855      5853      5861      5863
      5855      5853      5861      5864      5855      5856      5858      5859
      5855      5856      5858      5860      5855      5856      5858      5870
      5856      5855      5853      5861      5856      5858      5870      5871
      5856      5858      5870      5872      5856      5858      5870      5873
      5857      5856      5858      5859      5857      5856      5858      5860
      5857      5856      5858      5870      5858      5870      5873      5874
      5858      5870      5873      5875      5858      5870      5873      5876
      5859      5858      5870      5871      5859      5858      5870      5872
      5859      5858      5870      5873      5860      5858      5870      5871
      5860      5858      5870      5872      5860      5858      5870      5873
      5861      5864      5865      5866      5861      5864      5865      5867
      5862      5861      5864      5865      5863      5861      5864      5865
      5864      5865      5867      5868      5864      5865      5867      5869
      5864      5865      5867      5917      5865      5867      5917      5918
      5865      5867      5917      5919      5865      5867      5917      5920
      5866      5865      5867      5868      5866      5865      5867      5869
      5866      5865      5867      5917      5867      5917      5920      5921
      5867      5917      5920      5922      5867      5917      5920      5923
      5868      5867      5917      5918      5868      5867      5917      5919
      5868      5867      5917      5920      5869      5867      5917      5918
      5869      5867      5917      5919      5869      5867      5917      5920
      5870      5873      5876      5877      5870      5873      5876      5878
      5870      5873      5876      5879      5871      5870      5873      5874
      5871      5870      5873      5875      5871      5870      5873      5876
      5872      5870      5873      5874      5872      5870      5873      5875
      5872      5870      5873      5876      5873      5876      5879      5880
      5873      5876      5879      5881      5873      5876      5879      5882
      5874      5873      5876      5877      5874      5873      5876      5878
      5874      5873      5876      5879      5875      5873      5876      5877
      5875      5873      5876      5878      5875      5873      5876      5879
      5876      5879      5882      5883      5876      5879      5882      5884
      5876      5879      5882      5885      5877      5876      5879      5880
      5877      5876      5879      5881      5877      5876      5879      5882
      5878      5876      5879      5880      5878      5876      5879      5881
      5878      5876      5879      5882      5879      5882      5885      5886
      5879      5882      5885      5887      5879      5882      5885      5888
      5880      5879      5882      5883      5880      5879      5882      5884
      5880      5879      5882      5885      5881      5879      5882      5883
      5881      5879      5882      5884      5881      5879      5882      5885
      5882      5885      5888      5889      5882      5885      5888      5890
      5883      5882      5885      5886      5883      5882      5885      5887
      5883      5882      5885      5888      5884      5882      5885      5886
      5884      5882      5885      5887      5884      5882      5885      5888
      5885      5888      5890      5891      5885      5888      5890      5892
      5886      5885      5888      5889      5886      5885      5888      5890
      5887      5885      5888      5889      5887      5885      5888      5890
      5888      5890      5892      5893      5888      5890      5892      5894
      5888      5890      5892      5895      5889      5888      5890      5891
      5889      5888      5890      5892      5890      5892      5895      5896
      5890      5892      5895      5897      5890      5892      5895      5898
      5891      5890      5892      5893      5891      5890      5892      5894
      5891      5890      5892      5895      5892      5895      5898      5899
      5892      5895      5898      5900      5892      5895      5898      5901
      5893      5892      5895      5896      5893      5892      5895      5897
      5893      5892      5895      5898      5894      5892      5895      5896
      5894      5892      5895      5897      5894      5892      5895      5898
      5895      5898      5901      5902      5895      5898      5901      5903
      5895      5898      5901      5904      5896      5895      5898      5899
      5896      5895      5898      5900      5896      5895      5898      5901
      5897      5895      5898      5899      5897      5895      5898      5900
      5897      5895      5898      5901      5898      5901      5904      5905
      5898      5901      5904      5906      5898      5901      5904      5907
      5899      5898      5901      5902      5899      5898      5901      5903
      5899      5898      5901      5904      5900      5898      5901      5902
      5900      5898      5901      5903      5900      5898      5901      5904
      5901      5904      5907      5908      5901      5904      5907      5909
      5901      5904      5907      5910      5902      5901      5904      5905
      5902      5901      5904      5906      5902      5901      5904      5907
      5903      5901      5904      5905      5903      5901      5904      5906
      5903      5901      5904      5907      5904      5907      5910      5911
      5904      5907      5910      5912      5904      5907      5910      5913
      5905      5904      5907      5908      5905      5904      5907      5909
      5905      5904      5907      5910      5906      5904      5907      5908
      5906      5904      5907      5909      5906      5904      5907      5910
      5907      5910      5913      5914      5907      5910      5913      5915
      5907      5910      5913      5916      5908      5907      5910      5911
      5908      5907      5910      5912      5908      5907      5910      5913
      5909      5907      5910      5911      5909      5907      5910      5912
      5909      5907      5910      5913      5911      5910      5913      5914
      5911      5910      5913      5915      5911      5910      5913      5916
      5912      5910      5913      5914      5912      5910      5913      5915
      5912      5910      5913      5916      5917      5920      5923      5924
      5917      5920      5923      5925      5917      5920      5923      5926
      5918      5917      5920      5921      5918      5917      5920      5922
      5918      5917      5920      5923      5919      5917      5920      5921
      5919      5917      5920      5922      5919      5917      5920      5923
      5920      5923      5926      5927      5920      5923      5926      5928
      5920      5923      5926      5929      5921      5920      5923      5924
      5921      5920      5923      5925      5921      5920      5923      5926
      5922      5920      5923      5924      5922      5920      5923      5925
      5922      5920      5923      5926      5923      5926      5929      5930
      5923      5926      5929      5931      5923      5926      5929      5932
      5924      5923      5926      5927      5924      5923      5926      5928
      5924      5923      5926      5929      5925      5923      5926      5927
      5925      5923      5926      5928      5925      5923      5926      5929
      5926      5929      5932      5933      5926      5929      5932      5934
      5926      5929      5932      5935      5927      5926      5929      5930
      5927      5926      5929      5931      5927      5926      5929      5932
      5928      5926      5929      5930      5928      5926      5929      5931
      5928      5926      5929      5932      5929      5932      5935      5936
      5929      5932      5935      5937      5929      5932      5935      5938
      5930      5929      5932      5933      5930      5929      5932      5934
      5930      5929      5932      5935      5931      5929      5932      5933
      5931      5929      5932      5934      5931      5929      5932      5935
      5932      5935      5938      5939      5932      5935      5938      5940
      5932      5935      5938      5941      5933      5932      5935      5936
      5933      5932      5935      5937      5933      5932      5935      5938
      5934      5932      5935      5936      5934      5932      5935      5937
      5934      5932      5935      5938      5935      5938      5941      5942
      5935      5938      5941      5943      5935      5938      5941      5944
      5936      5935      5938      5939      5936      5935      5938      5940
      5936      5935      5938      5941      5937      5935      5938      5939
      5937      5935      5938      5940      5937      5935      5938      5941
      5938      5941      5944      5945      5938      5941      5944      5946
      5938      5941      5944      5947      5939      5938      5941      5942
      5939      5938      5941      5943      5939      5938      5941      5944
      5940      5938      5941      5942      5940      5938      5941      5943
      5940      5938      5941      5944      5941      5944      5947      5948
      5941      5944      5947      5949      5941      5944      5947      5950
      5942      5941      5944      5945      5942      5941      5944      5946
      5942      5941      5944      5947      5943      5941      5944      5945
      5943      5941      5944      5946      5943      5941      5944      5947
      5944      5947      5950      5951      5944      5947      5950      5952
      5944      5947      5950      5953      5945      5944      5947      5948
      5945      5944      5947      5949      5945      5944      5947      5950
      5946      5944      5947      5948      5946      5944      5947      5949
      5946      5944      5947      5950      5947      5950      5953      5954
      5947      5950      5953      5955      5947      5950      5953      5956
      5948      5947      5950      5951      5948      5947      5950      5952
      5948      5947      5950      5953      5949      5947      5950      5951
      5949      5947      5950      5952      5949      5947      5950      5953
      5950      5953      5956      5957      5950      5953      5956      5958
      5950      5953      5956      5959      5951      5950      5953      5954
      5951      5950      5953      5955      5951      5950      5953      5956
      5952      5950      5953      5954      5952      5950      5953      5955
      5952      5950      5953      5956      5954      5953      5956      5957
      5954      5953      5956      5958      5954      5953      5956      5959
      5955      5953      5956      5957      5955      5953      5956      5958
      5955      5953      5956      5959      5960      5961      5976      5977
      5960      5961      5976      5978      5960      5961      5976      5982
      5961      5960      5964      5965      5961      5960      5964      5966
      5961      5960      5964      5967      5961      5960      5968      5969
      5961      5960      5968      5970      5961      5960      5968      5971
      5961      5960      5972      5973      5961      5960      5972      5974
      5961      5960      5972      5975      5961      5976      5982      5979
      5962      5961      5960      5964      5962      5961      5960      5968
      5962      5961      5960      5972      5962      5961      5976      5977
      5962      5961      5976      5978      5962      5961      5976      5982
      5963      5961      5960      5964      5963      5961      5960      5968
      5963      5961      5960      5972      5963      5961      5976      5977
      5963      5961      5976      5978      5963      5961      5976      5982
      5964      5960      5961      5976      5964      5960      5968      5969
      5964      5960      5968      5970      5964      5960      5968      5971
      5964      5960      5972      5973      5964      5960      5972      5974
      5964      5960      5972      5975      5965      5964      5960      5968
      5965      5964      5960      5972      5966      5964      5960      5968
      5966      5964      5960      5972      5967      5964      5960      5968
      5967      5964      5960      5972      5968      5960      5961      5976
      5968      5960      5972      5973      5968      5960      5972      5974
      5968      5960      5972      5975      5969      5968      5960      5972
      5970      5968      5960      5972      5971      5968      5960      5972
      5972      5960      5961      5976      5976      5982      5979      5980
      5976      5982      5979      5981      5976      5982      5979      5983
      5977      5976      5982      5979      5978      5976      5982      5979
      5979      5983      5984      5985      5979      5983      5984      5986
      5979      5983      5984      5987      5980      5979      5983      5984
      5981      5979      5983      5984      5982      5979      5983      5984
      5983      5984      5987      5988      5983      5984      5987      5989
      5983      5984      5987      5995      5984      5987      5989      5990
      5984      5987      5995      5996      5984      5987      5995      5997
      5984      5987      5995      5998      5985      5984      5987      5988
      5985      5984      5987      5989      5985      5984      5987      5995
      5986      5984      5987      5988      5986      5984      5987      5989
      5986      5984      5987      5995      5987      5989      5990      5991
      5987      5989      5990      5992      5987      5995      5998      5999
      5988      5987      5989      5990      5988      5987      5995      5996
      5988      5987      5995      5997      5988      5987      5995      5998
      5989      5987      5995      5996      5989      5987      5995      5997
      5989      5987      5995      5998      5989      5990      5992      5993
      5989      5990      5992      5994      5989      5990      5992      6004
      5990      5989      5987      5995      5990      5992      6004      6005
      5990      5992      6004      6006      5990      5992      6004      6007
      5991      5990      5992      5993      5991      5990      5992      5994
      5991      5990      5992      6004      5992      6004      6007      6008
      5992      6004      6007      6009      5992      6004      6007      6010
      5993      5992      6004      6005      5993      5992      6004      6006
      5993      5992      6004      6007      5994      5992      6004      6005
      5994      5992      6004      6006      5994      5992      6004      6007
      5995      5998      5999      6000      5995      5998      5999      6001
      5996      5995      5998      5999      5997      5995      5998      5999
      5998      5999      6001      6002      5998      5999      6001      6003
      5998      5999      6001      6051      5999      6001      6051      6052
      5999      6001      6051      6053      5999      6001      6051      6054
      6000      5999      6001      6002      6000      5999      6001      6003
      6000      5999      6001      6051      6001      6051      6054      6055
      6001      6051      6054      6056      6001      6051      6054      6057
      6002      6001      6051      6052      6002      6001      6051      6053
      6002      6001      6051      6054      6003      6001      6051      6052
      6003      6001      6051      6053      6003      6001      6051      6054
      6004      6007      6010      6011      6004      6007      6010      6012
      6004      6007      6010      6013      6005      6004      6007      6008
      6005      6004      6007      6009      6005      6004      6007      6010
      6006      6004      6007      6008      6006      6004      6007      6009
      6006      6004      6007      6010      6007      6010      6013      6014
      6007      6010      6013      6015      6007      6010      6013      6016
      6008      6007      6010      6011      6008      6007      6010      6012
      6008      6007      6010      6013      6009      6007      6010      6011
      6009      6007      6010      6012      6009      6007      6010      6013
      6010      6013      6016      6017      6010      6013      6016      6018
      6010      6013      6016      6019      6011      6010      6013      6014
      6011      6010      6013      6015      6011      6010      6013      6016
      6012      6010      6013      6014      6012      6010      6013      6015
      6012      6010      6013      6016      6013      6016      6019      6020
      6013      6016      6019      6021      6013      6016      6019      6022
      6014      6013      6016      6017      6014      6013      6016      6018
      6014      6013      6016      6019      6015      6013      6016      6017
      6015      6013      6016      6018      6015      6013      6016      6019
      6016      6019      6022      6023      6016      6019      6022      6024
      6017      6016      6019      6020      6017      6016      6019      6021
      6017      6016      6019      6022      6018      6016      6019      6020
      6018      6016      6019      6021      6018      6016      6019      6022
      6019      6022      6024      6025      6019      6022      6024      6026
      6020      6019      6022      6023      6020      6019      6022      6024
      6021      6019      6022      6023      6021      6019      6022      6024
      6022      6024      6026      6027      6022      6024      6026      6028
      6022      6024      6026      6029      6023      6022      6024      6025
      6023      6022      6024      6026      6024      6026      6029      6030
      6024      6026      6029      6031      6024      6026      6029      6032
      6025      6024      6026      6027      6025      6024      6026      6028
      6025      6024      6026      6029      6026      6029      6032      6033
      6026      6029      6032      6034      6026      6029      6032      6035
      6027      6026      6029      6030      6027      6026      6029      6031
      6027      6026      6029      6032      6028      6026      6029      6030
      6028      6026      6029      6031      6028      6026      6029      6032
      6029      6032      6035      6036      6029      6032      6035      6037
      6029      6032      6035      6038      6030      6029      6032      6033
      6030      6029      6032      6034      6030      6029      6032      6035
      6031      6029      6032      6033      6031      6029      6032      6034
      6031      6029      6032      6035      6032      6035      6038      6039
      6032      6035      6038      6040      6032      6035      6038      6041
      6033      6032      6035      6036      6033      6032      6035      6037
      6033      6032      6035      6038      6034      6032      6035      6036
      6034      6032      6035      6037      6034      6032      6035      6038
      6035      6038      6041      6042      6035      6038      6041      6043
      6035      6038      6041      6044      6036      6035      6038      6039
      6036      6035      6038      6040      6036      6035      6038      6041
      6037      6035      6038      6039      6037      6035      6038      6040
      6037      6035      6038      6041      6038      6041      6044      6045
      6038      6041      6044      6046      6038      6041      6044      6047
      6039      6038      6041      6042      6039      6038      6041      6043
      6039      6038      6041      6044      6040      6038      6041      6042
      6040      6038      6041      6043      6040      6038      6041      6044
      6041      6044      6047      6048      6041      6044      6047      6049
      6041      6044      6047      6050      6042      6041      6044      6045
      6042      6041      6044      6046      6042      6041      6044      6047
      6043      6041      6044      6045      6043      6041      6044      6046
      6043      6041      6044      6047      6045      6044      6047      6048
      6045      6044      6047      6049      6045      6044      6047      6050
      6046      6044      6047      6048      6046      6044      6047      6049
      6046      6044      6047      6050      6051      6054      6057      6058
      6051      6054      6057      6059      6051      6054      6057      6060
      6052      6051      6054      6055      6052      6051      6054      6056
      6052      6051      6054      6057      6053      6051      6054      6055
      6053      6051      6054      6056      6053      6051      6054      6057
      6054      6057      6060      6061      6054      6057      6060      6062
      6054      6057      6060      6063      6055      6054      6057      6058
      6055      6054      6057      6059      6055      6054      6057      6060
      6056      6054      6057      6058      6056      6054      6057      6059
      6056      6054      6057      6060      6057      6060      6063      6064
      6057      6060      6063      6065      6057      6060      6063      6066
      6058      6057      6060      6061      6058      6057      6060      6062
      6058      6057      6060      6063      6059      6057      6060      6061
      6059      6057      6060      6062      6059      6057      6060      6063
      6060      6063      6066      6067      6060      6063      6066      6068
      6060      6063      6066      6069      6061      6060      6063      6064
      6061      6060      6063      6065      6061      6060      6063      6066
      6062      6060      6063      6064      6062      6060      6063      6065
      6062      6060      6063      6066      6063      6066      6069      6070
      6063      6066      6069      6071      6063      6066      6069      6072
      6064      6063      6066      6067      6064      6063      6066      6068
      6064      6063      6066      6069      6065      6063      6066      6067
      6065      6063      6066      6068      6065      6063      6066      6069
      6066      6069      6072      6073      6066      6069      6072      6074
      6066      6069      6072      6075      6067      6066      6069      6070
      6067      6066      6069      6071      6067      6066      6069      6072
      6068      6066      6069      6070      6068      6066      6069      6071
      6068      6066      6069      6072      6069      6072      6075      6076
      6069      6072      6075      6077      6069      6072      6075      6078
      6070      6069      6072      6073      6070      6069      6072      6074
      6070      6069      6072      6075      6071      6069      6072      6073
      6071      6069      6072      6074      6071      6069      6072      6075
      6072      6075      6078      6079      6072      6075      6078      6080
      6072      6075      6078      6081      6073      6072      6075      6076
      6073      6072      6075      6077      6073      6072      6075      6078
      6074      6072      6075      6076      6074      6072      6075      6077
      6074      6072      6075      6078      6075      6078      6081      6082
      6075      6078      6081      6083      6075      6078      6081      6084
      6076      6075      6078      6079      6076      6075      6078      6080
      6076      6075      6078      6081      6077      6075      6078      6079
      6077      6075      6078      6080      6077      6075      6078      6081
      6078      6081      6084      6085      6078      6081      6084      6086
      6078      6081      6084      6087      6079      6078      6081      6082
      6079      6078      6081      6083      6079      6078      6081      6084
      6080      6078      6081      6082      6080      6078      6081      6083
      6080      6078      6081      6084      6081      6084      6087      6088
      6081      6084      6087      6089      6081      6084      6087      6090
      6082      6081      6084      6085      6082      6081      6084      6086
      6082      6081      6084      6087      6083      6081      6084      6085
      6083      6081      6084      6086      6083      6081      6084      6087
      6084      6087      6090      6091      6084      6087      6090      6092
      6084      6087      6090      6093      6085      6084      6087      6088
      6085      6084      6087      6089      6085      6084      6087      6090
      6086      6084      6087      6088      6086      6084      6087      6089
      6086      6084      6087      6090      6088      6087      6090      6091
      6088      6087      6090      6092      6088      6087      6090      6093
      6089      6087      6090      6091      6089      6087      6090      6092
      6089      6087      6090      6093      6094      6095      6110      6111
      6094      6095      6110      6112      6094      6095      6110      6116
      6095      6094      6098      6099      6095      6094      6098      6100
      6095      6094      6098      6101      6095      6094      6102      6103
      6095      6094      6102      6104      6095      6094      6102      6105
      6095      6094      6106      6107      6095      6094      6106      6108
      6095      6094      6106      6109      6095      6110      6116      6113
      6096      6095      6094      6098      6096      6095      6094      6102
      6096      6095      6094      6106      6096      6095      6110      6111
      6096      6095      6110      6112      6096      6095      6110      6116
      6097      6095      6094      6098      6097      6095      6094      6102
      6097      6095      6094      6106      6097      6095      6110      6111
      6097      6095      6110      6112      6097      6095      6110      6116
      6098      6094      6095      6110      6098      6094      6102      6103
      6098      6094      6102      6104      6098      6094      6102      6105
      6098      6094      6106      6107      6098      6094      6106      6108
      6098      6094      6106      6109      6099      6098      6094      6102
      6099      6098      6094      6106      6100      6098      6094      6102
      6100      6098      6094      6106      6101      6098      6094      6102
      6101      6098      6094      6106      6102      6094      6095      6110
      6102      6094      6106      6107      6102      6094      6106      6108
      6102      6094      6106      6109      6103      6102      6094      6106
      6104      6102      6094      6106      6105      6102      6094      6106
      6106      6094      6095      6110      6110      6116      6113      6114
      6110      6116      6113      6115      6110      6116      6113      6117
      6111      6110      6116      6113      6112      6110      6116      6113
      6113      6117      6118      6119      6113      6117      6118      6120
      6113      6117      6118      6121      6114      6113      6117      6118
      6115      6113      6117      6118      6116      6113      6117      6118
      6117      6118      6121      6122      6117      6118      6121      6123
      6117      6118      6121      6129      6118      6121      6123      6124
      6118      6121      6129      6130      6118      6121      6129      6131
      6118      6121      6129      6132      6119      6118      6121      6122
      6119      6118      6121      6123      6119      6118      6121      6129
      6120      6118      6121      6122      6120      6118      6121      6123
      6120      6118      6121      6129      6121      6123      6124      6125
      6121      6123      6124      6126      6121      6129      6132      6133
      6122      6121      6123      6124      6122      6121      6129      6130
      6122      6121      6129      6131      6122      6121      6129      6132
      6123      6121      6129      6130      6123      6121      6129      6131
      6123      6121      6129      6132      6123      6124      6126      6127
      6123      6124      6126      6128      6123      6124      6126      6138
      6124      6123      6121      6129      6124      6126      6138      6139
      6124      6126      6138      6140      6124      6126      6138      6141
      6125      6124      6126      6127      6125      6124      6126      6128
      6125      6124      6126      6138      6126      6138      6141      6142
      6126      6138      6141      6143      6126      6138      6141      6144
      6127      6126      6138      6139      6127      6126      6138      6140
      6127      6126      6138      6141      6128      6126      6138      6139
      6128      6126      6138      6140      6128      6126      6138      6141
      6129      6132      6133      6134      6129      6132      6133      6135
      6130      6129      6132      6133      6131      6129      6132      6133
      6132      6133      6135      6136      6132      6133      6135      6137
      6132      6133      6135      6185      6133      6135      6185      6186
      6133      6135      6185      6187      6133      6135      6185      6188
      6134      6133      6135      6136      6134      6133      6135      6137
      6134      6133      6135      6185      6135      6185      6188      6189
      6135      6185      6188      6190      6135      6185      6188      6191
      6136      6135      6185      6186      6136      6135      6185      6187
      6136      6135      6185      6188      6137      6135      6185      6186
      6137      6135      6185      6187      6137      6135      6185      6188
      6138      6141      6144      6145      6138      6141      6144      6146
      6138      6141      6144      6147      6139      6138      6141      6142
      6139      6138      6141      6143      6139      6138      6141      6144
      6140      6138      6141      6142      6140      6138      6141      6143
      6140      6138      6141      6144      6141      6144      6147      6148
      6141      6144      6147      6149      6141      6144      6147      6150
      6142      6141      6144      6145      6142      6141      6144      6146
      6142      6141      6144      6147      6143      6141      6144      6145
      6143      6141      6144      6146      6143      6141      6144      6147
      6144      6147      6150      6151      6144      6147      6150      6152
      6144      6147      6150      6153      6145      6144      6147      6148
      6145      6144      6147      6149      6145      6144      6147      6150
      6146      6144      6147      6148      6146      6144      6147      6149
      6146      6144      6147      6150      6147      6150      6153      6154
      6147      6150      6153      6155      6147      6150      6153      6156
      6148      6147      6150      6151      6148      6147      6150      6152
      6148      6147      6150      6153      6149      6147      6150      6151
      6149      6147      6150      6152      6149      6147      6150      6153
      6150      6153      6156      6157      6150      6153      6156      6158
      6151      6150      6153      6154      6151      6150      6153      6155
      6151      6150      6153      6156      6152      6150      6153      6154
      6152      6150      6153      6155      6152      6150      6153      6156
      6153      6156      6158      6159      6153      6156      6158      6160
      6154      6153      6156      6157      6154      6153      6156      6158
      6155      6153      6156      6157      6155      6153      6156      6158
      6156      6158      6160      6161      6156      6158      6160      6162
      6156      6158      6160      6163      6157      6156      6158      6159
      6157      6156      6158      6160      6158      6160      6163      6164
      6158      6160      6163      6165      6158      6160      6163      6166
      6159      6158      6160      6161      6159      6158      6160      6162
      6159      6158      6160      6163      6160      6163      6166      6167
      6160      6163      6166      6168      6160      6163      6166      6169
      6161      6160      6163      6164      6161      6160      6163      6165
      6161      6160      6163      6166      6162      6160      6163      6164
      6162      6160      6163      6165      6162      6160      6163      6166
      6163      6166      6169      6170      6163      6166      6169      6171
      6163      6166      6169      6172      6164      6163      6166      6167
      6164      6163      6166      6168      6164      6163      6166      6169
      6165      6163      6166      6167      6165      6163      6166      6168
      6165      6163      6166      6169      6166      6169      6172      6173
      6166      6169      6172      6174      6166      6169      6172      6175
      6167      6166      6169      6170      6167      6166      6169      6171
      6167      6166      6169      6172      6168      6166      6169      6170
      6168      6166      6169      6171      6168      6166      6169      6172
      6169      6172      6175      6176      6169      6172      6175      6177
      6169      6172      6175      6178      6170      6169      6172      6173
      6170      6169      6172      6174      6170      6169      6172      6175
      6171      6169      6172      6173      6171      6169      6172      6174
      6171      6169      6172      6175      6172      6175      6178      6179
      6172      6175      6178      6180      6172      6175      6178      6181
      6173      6172      6175      6176      6173      6172      6175      6177
      6173      6172      6175      6178      6174      6172      6175      6176
      6174      6172      6175      6177      6174      6172      6175      6178
      6175      6178      6181      6182      6175      6178      6181      6183
      6175      6178      6181      6184      6176      6175      6178      6179
      6176      6175      6178      6180      6176      6175      6178      6181
      6177      6175      6178      6179      6177      6175      6178      6180
      6177      6175      6178      6181      6179      6178      6181      6182
      6179      6178      6181      6183      6179      6178      6181      6184
      6180      6178      6181      6182      6180      6178      6181      6183
      6180      6178      6181      6184      6185      6188      6191      6192
      6185      6188      6191      6193      6185      6188      6191      6194
      6186      6185      6188      6189      6186      6185      6188      6190
      6186      6185      6188      6191      6187      6185      6188      6189
      6187      6185      6188      6190      6187      6185      6188      6191
      6188      6191      6194      6195      6188      6191      6194      6196
      6188      6191      6194      6197      6189      6188      6191      6192
      6189      6188      6191      6193      6189      6188      6191      6194
      6190      6188      6191      6192      6190      6188      6191      6193
      6190      6188      6191      6194      6191      6194      6197      6198
      6191      6194      6197      6199      6191      6194      6197      6200
      6192      6191      6194      6195      6192      6191      6194      6196
      6192      6191      6194      6197      6193      6191      6194      6195
      6193      6191      6194      6196      6193      6191      6194      6197
      6194      6197      6200      6201      6194      6197      6200      6202
      6194      6197      6200      6203      6195      6194      6197      6198
      6195      6194      6197      6199      6195      6194      6197      6200
      6196      6194      6197      6198      6196      6194      6197      6199
      6196      6194      6197      6200      6197      6200      6203      6204
      6197      6200      6203      6205      6197      6200      6203      6206
      6198      6197      6200      6201      6198      6197      6200      6202
      6198      6197      6200      6203      6199      6197      6200      6201
      6199      6197      6200      6202      6199      6197      6200      6203
      6200      6203      6206      6207      6200      6203      6206      6208
      6200      6203      6206      6209      6201      6200      6203      6204
      6201      6200      6203      6205      6201      6200      6203      6206
      6202      6200      6203      6204      6202      6200      6203      6205
      6202      6200      6203      6206      6203      6206      6209      6210
      6203      6206      6209      6211      6203      6206      6209      6212
      6204      6203      6206      6207      6204      6203      6206      6208
      6204      6203      6206      6209      6205      6203      6206      6207
      6205      6203      6206      6208      6205      6203      6206      6209
      6206      6209      6212      6213      6206      6209      6212      6214
      6206      6209      6212      6215      6207      6206      6209      6210
      6207      6206      6209      6211      6207      6206      6209      6212
      6208      6206      6209      6210      6208      6206      6209      6211
      6208      6206      6209      6212      6209      6212      6215      6216
      6209      6212      6215      6217      6209      6212      6215      6218
      6210      6209      6212      6213      6210      6209      6212      6214
      6210      6209      6212      6215      6211      6209      6212      6213
      6211      6209      6212      6214      6211      6209      6212      6215
      6212      6215      6218      6219      6212      6215      6218      6220
      6212      6215      6218      6221      6213      6212      6215      6216
      6213      6212      6215      6217      6213      6212      6215      6218
      6214      6212      6215      6216      6214      6212      6215      6217
      6214      6212      6215      6218      6215      6218      6221      6222
      6215      6218      6221      6223      6215      6218      6221      6224
      6216      6215      6218      6219      6216      6215      6218      6220
      6216      6215      6218      6221      6217      6215      6218      6219
      6217      6215      6218      6220      6217      6215      6218      6221
      6218      6221      6224      6225      6218      6221      6224      6226
      6218      6221      6224      6227      6219      6218      6221      6222
      6219      6218      6221      6223      6219      6218      6221      6224
      6220      6218      6221      6222      6220      6218      6221      6223
      6220      6218      6221      6224      6222      6221      6224      6225
      6222      6221      6224      6226      6222      6221      6224      6227
      6223      6221      6224      6225      6223      6221      6224      6226
      6223      6221      6224      6227      6228      6229      6244      6245
      6228      6229      6244      6246      6228      6229      6244      6250
      6229      6228      6232      6233      6229      6228      6232      6234
      6229      6228      6232      6235      6229      6228      6236      6237
      6229      6228      6236      6238      6229      6228      6236      6239
      6229      6228      6240      6241      6229      6228      6240      6242
      6229      6228      6240      6243      6229      6244      6250      6247
      6230      6229      6228      6232      6230      6229      6228      6236
      6230      6229      6228      6240      6230      6229      6244      6245
      6230      6229      6244      6246      6230      6229      6244      6250
      6231      6229      6228      6232      6231      6229      6228      6236
      6231      6229      6228      6240      6231      6229      6244      6245
      6231      6229      6244      6246      6231      6229      6244      6250
      6232      6228      6229      6244      6232      6228      6236      6237
      6232      6228      6236      6238      6232      6228      6236      6239
      6232      6228      6240      6241      6232      6228      6240      6242
      6232      6228      6240      6243      6233      6232      6228      6236
      6233      6232      6228      6240      6234      6232      6228      6236
      6234      6232      6228      6240      6235      6232      6228      6236
      6235      6232      6228      6240      6236      6228      6229      6244
      6236      6228      6240      6241      6236      6228      6240      6242
      6236      6228      6240      6243      6237      6236      6228      6240
      6238      6236      6228      6240      6239      6236      6228      6240
      6240      6228      6229      6244      6244      6250      6247      6248
      6244      6250      6247      6249      6244      6250      6247      6251
      6245      6244      6250      6247      6246      6244      6250      6247
      6247      6251      6252      6253      6247      6251      6252      6254
      6247      6251      6252      6255      6248      6247      6251      6252
      6249      6247      6251      6252      6250      6247      6251      6252
      6251      6252      6255      6256      6251      6252      6255      6257
      6251      6252      6255      6263      6252      6255      6257      6258
      6252      6255      6263      6264      6252      6255      6263      6265
      6252      6255      6263      6266      6253      6252      6255      6256
      6253      6252      6255      6257      6253      6252      6255      6263
      6254      6252      6255      6256      6254      6252      6255      6257
      6254      6252      6255      6263      6255      6257      6258      6259
      6255      6257      6258      6260      6255      6263      6266      6267
      6256      6255      6257      6258      6256      6255      6263      6264
      6256      6255      6263      6265      6256      6255      6263      6266
      6257      6255      6263      6264      6257      6255      6263      6265
      6257      6255      6263      6266      6257      6258      6260      6261
      6257      6258      6260      6262      6257      6258      6260      6272
      6258      6257      6255      6263      6258      6260      6272      6273
      6258      6260      6272      6274      6258      6260      6272      6275
      6259      6258      6260      6261      6259      6258      6260      6262
      6259      6258      6260      6272      6260      6272      6275      6276
      6260      6272      6275      6277      6260      6272      6275      6278
      6261      6260      6272      6273      6261      6260      6272      6274
      6261      6260      6272      6275      6262      6260      6272      6273
      6262      6260      6272      6274      6262      6260      6272      6275
      6263      6266      6267      6268      6263      6266      6267      6269
      6264      6263      6266      6267      6265      6263      6266      6267
      6266      6267      6269      6270      6266      6267      6269      6271
      6266      6267      6269      6319      6267      6269      6319      6320
      6267      6269      6319      6321      6267      6269      6319      6322
      6268      6267      6269      6270      6268      6267      6269      6271
      6268      6267      6269      6319      6269      6319      6322      6323
      6269      6319      6322      6324      6269      6319      6322      6325
      6270      6269      6319      6320      6270      6269      6319      6321
      6270      6269      6319      6322      6271      6269      6319      6320
      6271      6269      6319      6321      6271      6269      6319      6322
      6272      6275      6278      6279      6272      6275      6278      6280
      6272      6275      6278      6281      6273      6272      6275      6276
      6273      6272      6275      6277      6273      6272      6275      6278
      6274      6272      6275      6276      6274      6272      6275      6277
      6274      6272      6275      6278      6275      6278      6281      6282
      6275      6278      6281      6283      6275      6278      6281      6284
      6276      6275      6278      6279      6276      6275      6278      6280
      6276      6275      6278      6281      6277      6275      6278      6279
      6277      6275      6278      6280      6277      6275      6278      6281
      6278      6281      6284      6285      6278      6281      6284      6286
      6278      6281      6284      6287      6279      6278      6281      6282
      6279      6278      6281      6283      6279      6278      6281      6284
      6280      6278      6281      6282      6280      6278      6281      6283
      6280      6278      6281      6284      6281      6284      6287      6288
      6281      6284      6287      6289      6281      6284      6287      6290
      6282      6281      6284      6285      6282      6281      6284      6286
      6282      6281      6284      6287      6283      6281      6284      6285
      6283      6281      6284      6286      6283      6281      6284      6287
      6284      6287      6290      6291      6284      6287      6290      6292
      6285      6284      6287      6288      6285      6284      6287      6289
      6285      6284      6287      6290      6286      6284      6287      6288
      6286      6284      6287      6289      6286      6284      6287      6290
      6287      6290      6292      6293      6287      6290      6292      6294
      6288      6287      6290      6291      6288      6287      6290      6292
      6289      6287      6290      6291      6289      6287      6290      6292
      6290      6292      6294      6295      6290      6292      6294      6296
      6290      6292      6294      6297      6291      6290      6292      6293
      6291      6290      6292      6294      6292      6294      6297      6298
      6292      6294      6297      6299      6292      6294      6297      6300
      6293      6292      6294      6295      6293      6292      6294      6296
      6293      6292      6294      6297      6294      6297      6300      6301
      6294      6297      6300      6302      6294      6297      6300      6303
      6295      6294      6297      6298      6295      6294      6297      6299
      6295      6294      6297      6300      6296      6294      6297      6298
      6296      6294      6297      6299      6296      6294      6297      6300
      6297      6300      6303      6304      6297      6300      6303      6305
      6297      6300      6303      6306      6298      6297      6300      6301
      6298      6297      6300      6302      6298      6297      6300      6303
      6299      6297      6300      6301      6299      6297      6300      6302
      6299      6297      6300      6303      6300      6303      6306      6307
      6300      6303      6306      6308      6300      6303      6306      6309
      6301      6300      6303      6304      6301      6300      6303      6305
      6301      6300      6303      6306      6302      6300      6303      6304
      6302      6300      6303      6305      6302      6300      6303      6306
      6303      6306      6309      6310      6303      6306      6309      6311
      6303      6306      6309      6312      6304      6303      6306      6307
      6304      6303      6306      6308      6304      6303      6306      6309
      6305      6303      6306      6307      6305      6303      6306      6308
      6305      6303      6306      6309      6306      6309      6312      6313
      6306      6309      6312      6314      6306      6309      6312      6315
      6307      6306      6309      6310      6307      6306      6309      6311
      6307      6306      6309      6312      6308      6306      6309      6310
      6308      6306      6309      6311      6308      6306      6309      6312
      6309      6312      6315      6316      6309      6312      6315      6317
      6309      6312      6315      6318      6310      6309      6312      6313
      6310      6309      6312      6314      6310      6309      6312      6315
      6311      6309      6312      6313      6311      6309      6312      6314
      6311      6309      6312      6315      6313      6312      6315      6316
      6313      6312      6315      6317      6313      6312      6315      6318
      6314      6312      6315      6316      6314      6312      6315      6317
      6314      6312      6315      6318      6319      6322      6325      6326
      6319      6322      6325      6327      6319      6322      6325      6328
      6320      6319      6322      6323      6320      6319      6322      6324
      6320      6319      6322      6325      6321      6319      6322      6323
      6321      6319      6322      6324      6321      6319      6322      6325
      6322      6325      6328      6329      6322      6325      6328      6330
      6322      6325      6328      6331      6323      6322      6325      6326
      6323      6322      6325      6327      6323      6322      6325      6328
      6324      6322      6325      6326      6324      6322      6325      6327
      6324      6322      6325      6328      6325      6328      6331      6332
      6325      6328      6331      6333      6325      6328      6331      6334
      6326      6325      6328      6329      6326      6325      6328      6330
      6326      6325      6328      6331      6327      6325      6328      6329
      6327      6325      6328      6330      6327      6325      6328      6331
      6328      6331      6334      6335      6328      6331      6334      6336
      6328      6331      6334      6337      6329      6328      6331      6332
      6329      6328      6331      6333      6329      6328      6331      6334
      6330      6328      6331      6332      6330      6328      6331      6333
      6330      6328      6331      6334      6331      6334      6337      6338
      6331      6334      6337      6339      6331      6334      6337      6340
      6332      6331      6334      6335      6332      6331      6334      6336
      6332      6331      6334      6337      6333      6331      6334      6335
      6333      6331      6334      6336      6333      6331      6334      6337
      6334      6337      6340      6341      6334      6337      6340      6342
      6334      6337      6340      6343      6335      6334      6337      6338
      6335      6334      6337      6339      6335      6334      6337      6340
      6336      6334      6337      6338      6336      6334      6337      6339
      6336      6334      6337      6340      6337      6340      6343      6344
      6337      6340      6343      6345      6337      6340      6343      6346
      6338      6337      6340      6341      6338      6337      6340      6342
      6338      6337      6340      6343      6339      6337      6340      6341
      6339      6337      6340      6342      6339      6337      6340      6343
      6340      6343      6346      6347      6340      6343      6346      6348
      6340      6343      6346      6349      6341      6340      6343      6344
      6341      6340      6343      6345      6341      6340      6343      6346
      6342      6340      6343      6344      6342      6340      6343      6345
      6342      6340      6343      6346      6343      6346      6349      6350
      6343      6346      6349      6351      6343      6346      6349      6352
      6344      6343      6346      6347      6344      6343      6346      6348
      6344      6343      6346      6349      6345      6343      6346      6347
      6345      6343      6346      6348      6345      6343      6346      6349
      6346      6349      6352      6353      6346      6349      6352      6354
      6346      6349      6352      6355      6347      6346      6349      6350
      6347      6346      6349      6351      6347      6346      6349      6352
      6348      6346      6349      6350      6348      6346      6349      6351
      6348      6346      6349      6352      6349      6352      6355      6356
      6349      6352      6355      6357      6349      6352      6355      6358
      6350      6349      6352      6353      6350      6349      6352      6354
      6350      6349      6352      6355      6351      6349      6352      6353
      6351      6349      6352      6354      6351      6349      6352      6355
      6352      6355      6358      6359      6352      6355      6358      6360
      6352      6355      6358      6361      6353      6352      6355      6356
      6353      6352      6355      6357      6353      6352      6355      6358
      6354      6352      6355      6356      6354      6352      6355      6357
      6354      6352      6355      6358      6356      6355      6358      6359
      6356      6355      6358      6360      6356      6355      6358      6361
      6357      6355      6358      6359      6357      6355      6358      6360
      6357      6355      6358      6361      6362      6363      6378      6379
      6362      6363      6378      6380      6362      6363      6378      6384
      6363      6362      6366      6367      6363      6362      6366      6368
      6363      6362      6366      6369      6363      6362      6370      6371
      6363      6362      6370      6372      6363      6362      6370      6373
      6363      6362      6374      6375      6363      6362      6374      6376
      6363      6362      6374      6377      6363      6378      6384      6381
      6364      6363      6362      6366      6364      6363      6362      6370
      6364      6363      6362      6374      6364      6363      6378      6379
      6364      6363      6378      6380      6364      6363      6378      6384
      6365      6363      6362      6366      6365      6363      6362      6370
      6365      6363      6362      6374      6365      6363      6378      6379
      6365      6363      6378      6380      6365      6363      6378      6384
      6366      6362      6363      6378      6366      6362      6370      6371
      6366      6362      6370      6372      6366      6362      6370      6373
      6366      6362      6374      6375      6366      6362      6374      6376
      6366      6362      6374      6377      6367      6366      6362      6370
      6367      6366      6362      6374      6368      6366      6362      6370
      6368      6366      6362      6374      6369      6366      6362      6370
      6369      6366      6362      6374      6370      6362      6363      6378
      6370      6362      6374      6375      6370      6362      6374      6376
      6370      6362      6374      6377      6371      6370      6362      6374
      6372      6370      6362      6374      6373      6370      6362      6374
      6374      6362      6363      6378      6378      6384      6381      6382
      6378      6384      6381      6383      6378      6384      6381      6385
      6379      6378      6384      6381      6380      6378      6384      6381
      6381      6385      6386      6387      6381      6385      6386      6388
      6381      6385      6386      6389      6382      6381      6385      6386
      6383      6381      6385      6386      6384      6381      6385      6386
      6385      6386      6389      6390      6385      6386      6389      6391
      6385      6386      6389      6397      6386      6389      6391      6392
      6386      6389      6397      6398      6386      6389      6397      6399
      6386      6389      6397      6400      6387      6386      6389      6390
      6387      6386      6389      6391      6387      6386      6389      6397
      6388      6386      6389      6390      6388      6386      6389      6391
      6388      6386      6389      6397      6389      6391      6392      6393
      6389      6391      6392      6394      6389      6397      6400      6401
      6390      6389      6391      6392      6390      6389      6397      6398
      6390      6389      6397      6399      6390      6389      6397      6400
      6391      6389      6397      6398      6391      6389      6397      6399
      6391      6389      6397      6400      6391      6392      6394      6395
      6391      6392      6394      6396      6391      6392      6394      6406
      6392      6391      6389      6397      6392      6394      6406      6407
      6392      6394      6406      6408      6392      6394      6406      6409
      6393      6392      6394      6395      6393      6392      6394      6396
      6393      6392      6394      6406      6394      6406      6409      6410
      6394      6406      6409      6411      6394      6406      6409      6412
      6395      6394      6406      6407      6395      6394      6406      6408
      6395      6394      6406      6409      6396      6394      6406      6407
      6396      6394      6406      6408      6396      6394      6406      6409
      6397      6400      6401      6402      6397      6400      6401      6403
      6398      6397      6400      6401      6399      6397      6400      6401
      6400      6401      6403      6404      6400      6401      6403      6405
      6400      6401      6403      6453      6401      6403      6453      6454
      6401      6403      6453      6455      6401      6403      6453      6456
      6402      6401      6403      6404      6402      6401      6403      6405
      6402      6401      6403      6453      6403      6453      6456      6457
      6403      6453      6456      6458      6403      6453      6456      6459
      6404      6403      6453      6454      6404      6403      6453      6455
      6404      6403      6453      6456      6405      6403      6453      6454
      6405      6403      6453      6455      6405      6403      6453      6456
      6406      6409      6412      6413      6406      6409      6412      6414
      6406      6409      6412      6415      6407      6406      6409      6410
      6407      6406      6409      6411      6407      6406      6409      6412
      6408      6406      6409      6410      6408      6406      6409      6411
      6408      6406      6409      6412      6409      6412      6415      6416
      6409      6412      6415      6417      6409      6412      6415      6418
      6410      6409      6412      6413      6410      6409      6412      6414
      6410      6409      6412      6415      6411      6409      6412      6413
      6411      6409      6412      6414      6411      6409      6412      6415
      6412      6415      6418      6419      6412      6415      6418      6420
      6412      6415      6418      6421      6413      6412      6415      6416
      6413      6412      6415      6417      6413      6412      6415      6418
      6414      6412      6415      6416      6414      6412      6415      6417
      6414      6412      6415      6418      6415      6418      6421      6422
      6415      6418      6421      6423      6415      6418      6421      6424
      6416      6415      6418      6419      6416      6415      6418      6420
      6416      6415      6418      6421      6417      6415      6418      6419
      6417      6415      6418      6420      6417      6415      6418      6421
      6418      6421      6424      6425      6418      6421      6424      6426
      6419      6418      6421      6422      6419      6418      6421      6423
      6419      6418      6421      6424      6420      6418      6421      6422
      6420      6418      6421      6423      6420      6418      6421      6424
      6421      6424      6426      6427      6421      6424      6426      6428
      6422      6421      6424      6425      6422      6421      6424      6426
      6423      6421      6424      6425      6423      6421      6424      6426
      6424      6426      6428      6429      6424      6426      6428      6430
      6424      6426      6428      6431      6425      6424      6426      6427
      6425      6424      6426      6428      6426      6428      6431      6432
      6426      6428      6431      6433      6426      6428      6431      6434
      6427      6426      6428      6429      6427      6426      6428      6430
      6427      6426      6428      6431      6428      6431      6434      6435
      6428      6431      6434      6436      6428      6431      6434      6437
      6429      6428      6431      6432      6429      6428      6431      6433
      6429      6428      6431      6434      6430      6428      6431      6432
      6430      6428      6431      6433      6430      6428      6431      6434
      6431      6434      6437      6438      6431      6434      6437      6439
      6431      6434      6437      6440      6432      6431      6434      6435
      6432      6431      6434      6436      6432      6431      6434      6437
      6433      6431      6434      6435      6433      6431      6434      6436
      6433      6431      6434      6437      6434      6437      6440      6441
      6434      6437      6440      6442      6434      6437      6440      6443
      6435      6434      6437      6438      6435      6434      6437      6439
      6435      6434      6437      6440      6436      6434      6437      6438
      6436      6434      6437      6439      6436      6434      6437      6440
      6437      6440      6443      6444      6437      6440      6443      6445
      6437      6440      6443      6446      6438      6437      6440      6441
      6438      6437      6440      6442      6438      6437      6440      6443
      6439      6437      6440      6441      6439      6437      6440      6442
      6439      6437      6440      6443      6440      6443      6446      6447
      6440      6443      6446      6448      6440      6443      6446      6449
      6441      6440      6443      6444      6441      6440      6443      6445
      6441      6440      6443      6446      6442      6440      6443      6444
      6442      6440      6443      6445      6442      6440      6443      6446
      6443      6446      6449      6450      6443      6446      6449      6451
      6443      6446      6449      6452      6444      6443      6446      6447
      6444      6443      6446      6448      6444      6443      6446      6449
      6445      6443      6446      6447      6445      6443      6446      6448
      6445      6443      6446      6449      6447      6446      6449      6450
      6447      6446      6449      6451      6447      6446      6449      6452
      6448      6446      6449      6450      6448      6446      6449      6451
      6448      6446      6449      6452      6453      6456      6459      6460
      6453      6456      6459      6461      6453      6456      6459      6462
      6454      6453      6456      6457      6454      6453      6456      6458
      6454      6453      6456      6459      6455      6453      6456      6457
      6455      6453      6456      6458      6455      6453      6456      6459
      6456      6459      6462      6463      6456      6459      6462      6464
      6456      6459      6462      6465      6457      6456      6459      6460
      6457      6456      6459      6461      6457      6456      6459      6462
      6458      6456      6459      6460      6458      6456      6459      6461
      6458      6456      6459      6462      6459      6462      6465      6466
      6459      6462      6465      6467      6459      6462      6465      6468
      6460      6459      6462      6463      6460      6459      6462      6464
      6460      6459      6462      6465      6461      6459      6462      6463
      6461      6459      6462      6464      6461      6459      6462      6465
      6462      6465      6468      6469      6462      6465      6468      6470
      6462      6465      6468      6471      6463      6462      6465      6466
      6463      6462      6465      6467      6463      6462      6465      6468
      6464      6462      6465      6466      6464      6462      6465      6467
      6464      6462      6465      6468      6465      6468      6471      6472
      6465      6468      6471      6473      6465      6468      6471      6474
      6466      6465      6468      6469      6466      6465      6468      6470
      6466      6465      6468      6471      6467      6465      6468      6469
      6467      6465      6468      6470      6467      6465      6468      6471
      6468      6471      6474      6475      6468      6471      6474      6476
      6468      6471      6474      6477      6469      6468      6471      6472
      6469      6468      6471      6473      6469      6468      6471      6474
      6470      6468      6471      6472      6470      6468      6471      6473
      6470      6468      6471      6474      6471      6474      6477      6478
      6471      6474      6477      6479      6471      6474      6477      6480
      6472      6471      6474      6475      6472      6471      6474      6476
      6472      6471      6474      6477      6473      6471      6474      6475
      6473      6471      6474      6476      6473      6471      6474      6477
      6474      6477      6480      6481      6474      6477      6480      6482
      6474      6477      6480      6483      6475      6474      6477      6478
      6475      6474      6477      6479      6475      6474      6477      6480
      6476      6474      6477      6478      6476      6474      6477      6479
      6476      6474      6477      6480      6477      6480      6483      6484
      6477      6480      6483      6485      6477      6480      6483      6486
      6478      6477      6480      6481      6478      6477      6480      6482
      6478      6477      6480      6483      6479      6477      6480      6481
      6479      6477      6480      6482      6479      6477      6480      6483
      6480      6483      6486      6487      6480      6483      6486      6488
      6480      6483      6486      6489      6481      6480      6483      6484
      6481      6480      6483      6485      6481      6480      6483      6486
      6482      6480      6483      6484      6482      6480      6483      6485
      6482      6480      6483      6486      6483      6486      6489      6490
      6483      6486      6489      6491      6483      6486      6489      6492
      6484      6483      6486      6487      6484      6483      6486      6488
      6484      6483      6486      6489      6485      6483      6486      6487
      6485      6483      6486      6488      6485      6483      6486      6489
      6486      6489      6492      6493      6486      6489      6492      6494
      6486      6489      6492      6495      6487      6486      6489      6490
      6487      6486      6489      6491      6487      6486      6489      6492
      6488      6486      6489      6490      6488      6486      6489      6491
      6488      6486      6489      6492      6490      6489      6492      6493
      6490      6489      6492      6494      6490      6489      6492      6495
      6491      6489      6492      6493      6491      6489      6492      6494
      6491      6489      6492      6495      6496      6500      6502      6503
      6496      6500      6502      6504      6496      6500      6505      6506
      6496      6500      6505      6507      6496      6500      6505      6511
      6497      6496      6500      6501      6497      6496      6500      6502
      6497      6496      6500      6505      6498      6496      6500      6501
      6498      6496      6500      6502      6498      6496      6500      6505
      6499      6496      6500      6501      6499      6496      6500      6502
      6499      6496      6500      6505      6500      6505      6511      6508
      6501      6500      6502      6503      6501      6500      6502      6504
      6501      6500      6505      6506      6501      6500      6505      6507
      6501      6500      6505      6511      6502      6500      6505      6506
      6502      6500      6505      6507      6502      6500      6505      6511
      6503      6502      6500      6505      6504      6502      6500      6505
      6505      6511      6508      6509      6505      6511      6508      6510
      6505      6511      6508      6512      6506      6505      6511      6508
      6507      6505      6511      6508      6508      6512      6513      6514
      6508      6512      6513      6515      6508      6512      6513      6516
      6509      6508      6512      6513      6510      6508      6512      6513
      6511      6508      6512      6513      6512      6513      6516      6517
      6512      6513      6516      6518      6512      6513      6516      6524
      6513      6516      6518      6519      6513      6516      6524      6525
      6513      6516      6524      6526      6513      6516      6524      6527
      6514      6513      6516      6517      6514      6513      6516      6518
      6514      6513      6516      6524      6515      6513      6516      6517
      6515      6513      6516      6518      6515      6513      6516      6524
      6516      6518      6519      6520      6516      6518      6519      6521
      6516      6524      6527      6528      6517      6516      6518      6519
      6517      6516      6524      6525      6517      6516      6524      6526
      6517      6516      6524      6527      6518      6516      6524      6525
      6518      6516      6524      6526      6518      6516      6524      6527
      6518      6519      6521      6522      6518      6519      6521      6523
      6518      6519      6521      6533      6519      6518      6516      6524
      6519      6521      6533      6534      6519      6521      6533      6535
      6519      6521      6533      6536      6520      6519      6521      6522
      6520      6519      6521      6523      6520      6519      6521      6533
      6521      6533      6536      6537      6521      6533      6536      6538
      6521      6533      6536      6539      6522      6521      6533      6534
      6522      6521      6533      6535      6522      6521      6533      6536
      6523      6521      6533      6534      6523      6521      6533      6535
      6523      6521      6533      6536      6524      6527      6528      6529
      6524      6527      6528      6530      6525      6524      6527      6528
      6526      6524      6527      6528      6527      6528      6530      6531
      6527      6528      6530      6532      6527      6528      6530      6580
      6528      6530      6580      6581      6528      6530      6580      6582
      6528      6530      6580      6583      6529      6528      6530      6531
      6529      6528      6530      6532      6529      6528      6530      6580
      6530      6580      6583      6584      6530      6580      6583      6585
      6530      6580      6583      6586      6531      6530      6580      6581
      6531      6530      6580      6582      6531      6530      6580      6583
      6532      6530      6580      6581      6532      6530      6580      6582
      6532      6530      6580      6583      6533      6536      6539      6540
      6533      6536      6539      6541      6533      6536      6539      6542
      6534      6533      6536      6537      6534      6533      6536      6538
      6534      6533      6536      6539      6535      6533      6536      6537
      6535      6533      6536      6538      6535      6533      6536      6539
      6536      6539      6542      6543      6536      6539      6542      6544
      6536      6539      6542      6545      6537      6536      6539      6540
      6537      6536      6539      6541      6537      6536      6539      6542
      6538      6536      6539      6540      6538      6536      6539      6541
      6538      6536      6539      6542      6539      6542      6545      6546
      6539      6542      6545      6547      6539      6542      6545      6548
      6540      6539      6542      6543      6540      6539      6542      6544
      6540      6539      6542      6545      6541      6539      6542      6543
      6541      6539      6542      6544      6541      6539      6542      6545
      6542      6545      6548      6549      6542      6545      6548      6550
      6542      6545      6548      6551      6543      6542      6545      6546
      6543      6542      6545      6547      6543      6542      6545      6548
      6544      6542      6545      6546      6544      6542      6545      6547
      6544      6542      6545      6548      6545      6548      6551      6552
      6545      6548      6551      6553      6546      6545      6548      6549
      6546      6545      6548      6550      6546      6545      6548      6551
      6547      6545      6548      6549      6547      6545      6548      6550
      6547      6545      6548      6551      6548      6551      6553      6554
      6548      6551      6553      6555      6549      6548      6551      6552
      6549      6548      6551      6553      6550      6548      6551      6552
      6550      6548      6551      6553      6551      6553      6555      6556
      6551      6553      6555      6557      6551      6553      6555      6558
      6552      6551      6553      6554      6552      6551      6553      6555
      6553      6555      6558      6559      6553      6555      6558      6560
      6553      6555      6558      6561      6554      6553      6555      6556
      6554      6553      6555      6557      6554      6553      6555      6558
      6555      6558      6561      6562      6555      6558      6561      6563
      6555      6558      6561      6564      6556      6555      6558      6559
      6556      6555      6558      6560      6556      6555      6558      6561
      6557      6555      6558      6559      6557      6555      6558      6560
      6557      6555      6558      6561      6558      6561      6564      6565
      6558      6561      6564      6566      6558      6561      6564      6567
      6559      6558      6561      6562      6559      6558      6561      6563
      6559      6558      6561      6564      6560      6558      6561      6562
      6560      6558      6561      6563      6560      6558      6561      6564
      6561      6564      6567      6568      6561      6564      6567      6569
      6561      6564      6567      6570      6562      6561      6564      6565
      6562      6561      6564      6566      6562      6561      6564      6567
      6563      6561      6564      6565      6563      6561      6564      6566
      6563      6561      6564      6567      6564      6567      6570      6571
      6564      6567      6570      6572      6564      6567      6570      6573
      6565      6564      6567      6568      6565      6564      6567      6569
      6565      6564      6567      6570      6566      6564      6567      6568
      6566      6564      6567      6569      6566      6564      6567      6570
      6567      6570      6573      6574      6567      6570      6573      6575
      6567      6570      6573      6576      6568      6567      6570      6571
      6568      6567      6570      6572      6568      6567      6570      6573
      6569      6567      6570      6571      6569      6567      6570      6572
      6569      6567      6570      6573      6570      6573      6576      6577
      6570      6573      6576      6578      6570      6573      6576      6579
      6571      6570      6573      6574      6571      6570      6573      6575
      6571      6570      6573      6576      6572      6570      6573      6574
      6572      6570      6573      6575      6572      6570      6573      6576
      6574      6573      6576      6577      6574      6573      6576      6578
      6574      6573      6576      6579      6575      6573      6576      6577
      6575      6573      6576      6578      6575      6573      6576      6579
      6580      6583      6586      6587      6580      6583      6586      6588
      6580      6583      6586      6589      6581      6580      6583      6584
      6581      6580      6583      6585      6581      6580      6583      6586
      6582      6580      6583      6584      6582      6580      6583      6585
      6582      6580      6583      6586      6583      6586      6589      6590
      6583      6586      6589      6591      6583      6586      6589      6592
      6584      6583      6586      6587      6584      6583      6586      6588
      6584      6583      6586      6589      6585      6583      6586      6587
      6585      6583      6586      6588      6585      6583      6586      6589
      6586      6589      6592      6593      6586      6589      6592      6594
      6586      6589      6592      6595      6587      6586      6589      6590
      6587      6586      6589      6591      6587      6586      6589      6592
      6588      6586      6589      6590      6588      6586      6589      6591
      6588      6586      6589      6592      6589      6592      6595      6596
      6589      6592      6595      6597      6589      6592      6595      6598
      6590      6589      6592      6593      6590      6589      6592      6594
      6590      6589      6592      6595      6591      6589      6592      6593
      6591      6589      6592      6594      6591      6589      6592      6595
      6592      6595      6598      6599      6592      6595      6598      6600
      6592      6595      6598      6601      6593      6592      6595      6596
      6593      6592      6595      6597      6593      6592      6595      6598
      6594      6592      6595      6596      6594      6592      6595      6597
      6594      6592      6595      6598      6595      6598      6601      6602
      6595      6598      6601      6603      6595      6598      6601      6604
      6596      6595      6598      6599      6596      6595      6598      6600
      6596      6595      6598      6601      6597      6595      6598      6599
      6597      6595      6598      6600      6597      6595      6598      6601
      6598      6601      6604      6605      6598      6601      6604      6606
      6598      6601      6604      6607      6599      6598      6601      6602
      6599      6598      6601      6603      6599      6598      6601      6604
      6600      6598      6601      6602      6600      6598      6601      6603
      6600      6598      6601      6604      6601      6604      6607      6608
      6601      6604      6607      6609      6601      6604      6607      6610
      6602      6601      6604      6605      6602      6601      6604      6606
      6602      6601      6604      6607      6603      6601      6604      6605
      6603      6601      6604      6606      6603      6601      6604      6607
      6604      6607      6610      6611      6604      6607      6610      6612
      6604      6607      6610      6613      6605      6604      6607      6608
      6605      6604      6607      6609      6605      6604      6607      6610
      6606      6604      6607      6608      6606      6604      6607      6609
      6606      6604      6607      6610      6607      6610      6613      6614
      6607      6610      6613      6615      6607      6610      6613      6616
      6608      6607      6610      6611      6608      6607      6610      6612
      6608      6607      6610      6613      6609      6607      6610      6611
      6609      6607      6610      6612      6609      6607      6610      6613
      6610      6613      6616      6617      6610      6613      6616      6618
      6610      6613      6616      6619      6611      6610      6613      6614
      6611      6610      6613      6615      6611      6610      6613      6616
      6612      6610      6613      6614      6612      6610      6613      6615
      6612      6610      6613      6616      6613      6616      6619      6620
      6613      6616      6619      6621      6613      6616      6619      6622
      6614      6613      6616      6617      6614      6613      6616      6618
      6614      6613      6616      6619      6615      6613      6616      6617
      6615      6613      6616      6618      6615      6613      6616      6619
      6617      6616      6619      6620      6617      6616      6619      6621
      6617      6616      6619      6622      6618      6616      6619      6620
      6618      6616      6619      6621      6618      6616      6619      6622
      6623      6627      6629      6630      6623      6627      6629      6631
      6623      6627      6632      6633      6623      6627      6632      6634
      6623      6627      6632      6638      6624      6623      6627      6628
      6624      6623      6627      6629      6624      6623      6627      6632
      6625      6623      6627      6628      6625      6623      6627      6629
      6625      6623      6627      6632      6626      6623      6627      6628
      6626      6623      6627      6629      6626      6623      6627      6632
      6627      6632      6638      6635      6628      6627      6629      6630
      6628      6627      6629      6631      6628      6627      6632      6633
      6628      6627      6632      6634      6628      6627      6632      6638
      6629      6627      6632      6633      6629      6627      6632      6634
      6629      6627      6632      6638      6630      6629      6627      6632
      6631      6629      6627      6632      6632      6638      6635      6636
      6632      6638      6635      6637      6632      6638      6635      6639
      6633      6632      6638      6635      6634      6632      6638      6635
      6635      6639      6640      6641      6635      6639      6640      6642
      6635      6639      6640      6643      6636      6635      6639      6640
      6637      6635      6639      6640      6638      6635      6639      6640
      6639      6640      6643      6644      6639      6640      6643      6645
      6639      6640      6643      6651      6640      6643      6645      6646
      6640      6643      6651      6652      6640      6643      6651      6653
      6640      6643      6651      6654      6641      6640      6643      6644
      6641      6640      6643      6645      6641      6640      6643      6651
      6642      6640      6643      6644      6642      6640      6643      6645
      6642      6640      6643      6651      6643      6645      6646      6647
      6643      6645      6646      6648      6643      6651      6654      6655
      6644      6643      6645      6646      6644      6643      6651      6652
      6644      6643      6651      6653      6644      6643      6651      6654
      6645      6643      6651      6652      6645      6643      6651      6653
      6645      6643      6651      6654      6645      6646      6648      6649
      6645      6646      6648      6650      6645      6646      6648      6660
      6646      6645      6643      6651      6646      6648      6660      6661
      6646      6648      6660      6662      6646      6648      6660      6663
      6647      6646      6648      6649      6647      6646      6648      6650
      6647      6646      6648      6660      6648      6660      6663      6664
      6648      6660      6663      6665      6648      6660      6663      6666
      6649      6648      6660      6661      6649      6648      6660      6662
      6649      6648      6660      6663      6650      6648      6660      6661
      6650      6648      6660      6662      6650      6648      6660      6663
      6651      6654      6655      6656      6651      6654      6655      6657
      6652      6651      6654      6655      6653      6651      6654      6655
      6654      6655      6657      6658      6654      6655      6657      6659
      6654      6655      6657      6707      6655      6657      6707      6708
      6655      6657      6707      6709      6655      6657      6707      6710
      6656      6655      6657      6658      6656      6655      6657      6659
      6656      6655      6657      6707      6657      6707      6710      6711
      6657      6707      6710      6712      6657      6707      6710      6713
      6658      6657      6707      6708      6658      6657      6707      6709
      6658      6657      6707      6710      6659      6657      6707      6708
      6659      6657      6707      6709      6659      6657      6707      6710
      6660      6663      6666      6667      6660      6663      6666      6668
      6660      6663      6666      6669      6661      6660      6663      6664
      6661      6660      6663      6665      6661      6660      6663      6666
      6662      6660      6663      6664      6662      6660      6663      6665
      6662      6660      6663      6666      6663      6666      6669      6670
      6663      6666      6669      6671      6663      6666      6669      6672
      6664      6663      6666      6667      6664      6663      6666      6668
      6664      6663      6666      6669      6665      6663      6666      6667
      6665      6663      6666      6668      6665      6663      6666      6669
      6666      6669      6672      6673      6666      6669      6672      6674
      6666      6669      6672      6675      6667      6666      6669      6670
      6667      6666      6669      6671      6667      6666      6669      6672
      6668      6666      6669      6670      6668      6666      6669      6671
      6668      6666      6669      6672      6669      6672      6675      6676
      6669      6672      6675      6677      6669      6672      6675      6678
      6670      6669      6672      6673      6670      6669      6672      6674
      6670      6669      6672      6675      6671      6669      6672      6673
      6671      6669      6672      6674      6671      6669      6672      6675
      6672      6675      6678      6679      6672      6675      6678      6680
      6673      6672      6675      6676      6673      6672      6675      6677
      6673      6672      6675      6678      6674      6672      6675      6676
      6674      6672      6675      6677      6674      6672      6675      6678
      6675      6678      6680      6681      6675      6678      6680      6682
      6676      6675      6678      6679      6676      6675      6678      6680
      6677      6675      6678      6679      6677      6675      6678      6680
      6678      6680      6682      6683      6678      6680      6682      6684
      6678      6680      6682      6685      6679      6678      6680      6681
      6679      6678      6680      6682      6680      6682      6685      6686
      6680      6682      6685      6687      6680      6682      6685      6688
      6681      6680      6682      6683      6681      6680      6682      6684
      6681      6680      6682      6685      6682      6685      6688      6689
      6682      6685      6688      6690      6682      6685      6688      6691
      6683      6682      6685      6686      6683      6682      6685      6687
      6683      6682      6685      6688      6684      6682      6685      6686
      6684      6682      6685      6687      6684      6682      6685      6688
      6685      6688      6691      6692      6685      6688      6691      6693
      6685      6688      6691      6694      6686      6685      6688      6689
      6686      6685      6688      6690      6686      6685      6688      6691
      6687      6685      6688      6689      6687      6685      6688      6690
      6687      6685      6688      6691      6688      6691      6694      6695
      6688      6691      6694      6696      6688      6691      6694      6697
      6689      6688      6691      6692      6689      6688      6691      6693
      6689      6688      6691      6694      6690      6688      6691      6692
      6690      6688      6691      6693      6690      6688      6691      6694
      6691      6694      6697      6698      6691      6694      6697      6699
      6691      6694      6697      6700      6692      6691      6694      6695
      6692      6691      6694      6696      6692      6691      6694      6697
      6693      6691      6694      6695      6693      6691      6694      6696
      6693      6691      6694      6697      6694      6697      6700      6701
      6694      6697      6700      6702      6694      6697      6700      6703
      6695      6694      6697      6698      6695      6694      6697      6699
      6695      6694      6697      6700      6696      6694      6697      6698
      6696      6694      6697      6699      6696      6694      6697      6700
      6697      6700      6703      6704      6697      6700      6703      6705
      6697      6700      6703      6706      6698      6697      6700      6701
      6698      6697      6700      6702      6698      6697      6700      6703
      6699      6697      6700      6701      6699      6697      6700      6702
      6699      6697      6700      6703      6701      6700      6703      6704
      6701      6700      6703      6705      6701      6700      6703      6706
      6702      6700      6703      6704      6702      6700      6703      6705
      6702      6700      6703      6706      6707      6710      6713      6714
      6707      6710      6713      6715      6707      6710      6713      6716
      6708      6707      6710      6711      6708      6707      6710      6712
      6708      6707      6710      6713      6709      6707      6710      6711
      6709      6707      6710      6712      6709      6707      6710      6713
      6710      6713      6716      6717      6710      6713      6716      6718
      6710      6713      6716      6719      6711      6710      6713      6714
      6711      6710      6713      6715      6711      6710      6713      6716
      6712      6710      6713      6714      6712      6710      6713      6715
      6712      6710      6713      6716      6713      6716      6719      6720
      6713      6716      6719      6721      6713      6716      6719      6722
      6714      6713      6716      6717      6714      6713      6716      6718
      6714      6713      6716      6719      6715      6713      6716      6717
      6715      6713      6716      6718      6715      6713      6716      6719
      6716      6719      6722      6723      6716      6719      6722      6724
      6716      6719      6722      6725      6717      6716      6719      6720
      6717      6716      6719      6721      6717      6716      6719      6722
      6718      6716      6719      6720      6718      6716      6719      6721
      6718      6716      6719      6722      6719      6722      6725      6726
      6719      6722      6725      6727      6719      6722      6725      6728
      6720      6719      6722      6723      6720      6719      6722      6724
      6720      6719      6722      6725      6721      6719      6722      6723
      6721      6719      6722      6724      6721      6719      6722      6725
      6722      6725      6728      6729      6722      6725      6728      6730
      6722      6725      6728      6731      6723      6722      6725      6726
      6723      6722      6725      6727      6723      6722      6725      6728
      6724      6722      6725      6726      6724      6722      6725      6727
      6724      6722      6725      6728      6725      6728      6731      6732
      6725      6728      6731      6733      6725      6728      6731      6734
      6726      6725      6728      6729      6726      6725      6728      6730
      6726      6725      6728      6731      6727      6725      6728      6729
      6727      6725      6728      6730      6727      6725      6728      6731
      6728      6731      6734      6735      6728      6731      6734      6736
      6728      6731      6734      6737      6729      6728      6731      6732
      6729      6728      6731      6733      6729      6728      6731      6734
      6730      6728      6731      6732      6730      6728      6731      6733
      6730      6728      6731      6734      6731      6734      6737      6738
      6731      6734      6737      6739      6731      6734      6737      6740
      6732      6731      6734      6735      6732      6731      6734      6736
      6732      6731      6734      6737      6733      6731      6734      6735
      6733      6731      6734      6736      6733      6731      6734      6737
      6734      6737      6740      6741      6734      6737      6740      6742
      6734      6737      6740      6743      6735      6734      6737      6738
      6735      6734      6737      6739      6735      6734      6737      6740
      6736      6734      6737      6738      6736      6734      6737      6739
      6736      6734      6737      6740      6737      6740      6743      6744
      6737      6740      6743      6745      6737      6740      6743      6746
      6738      6737      6740      6741      6738      6737      6740      6742
      6738      6737      6740      6743      6739      6737      6740      6741
      6739      6737      6740      6742      6739      6737      6740      6743
      6740      6743      6746      6747      6740      6743      6746      6748
      6740      6743      6746      6749      6741      6740      6743      6744
      6741      6740      6743      6745      6741      6740      6743      6746
      6742      6740      6743      6744      6742      6740      6743      6745
      6742      6740      6743      6746      6744      6743      6746      6747
      6744      6743      6746      6748      6744      6743      6746      6749
      6745      6743      6746      6747      6745      6743      6746      6748
      6745      6743      6746      6749      6750      6754      6756      6757
      6750      6754      6756      6758      6750      6754      6759      6760
      6750      6754      6759      6761      6750      6754      6759      6765
      6751      6750      6754      6755      6751      6750      6754      6756
      6751      6750      6754      6759      6752      6750      6754      6755
      6752      6750      6754      6756      6752      6750      6754      6759
      6753      6750      6754      6755      6753      6750      6754      6756
      6753      6750      6754      6759      6754      6759      6765      6762
      6755      6754      6756      6757      6755      6754      6756      6758
      6755      6754      6759      6760      6755      6754      6759      6761
      6755      6754      6759      6765      6756      6754      6759      6760
      6756      6754      6759      6761      6756      6754      6759      6765
      6757      6756      6754      6759      6758      6756      6754      6759
      6759      6765      6762      6763      6759      6765      6762      6764
      6759      6765      6762      6766      6760      6759      6765      6762
      6761      6759      6765      6762      6762      6766      6767      6768
      6762      6766      6767      6769      6762      6766      6767      6770
      6763      6762      6766      6767      6764      6762      6766      6767
      6765      6762      6766      6767      6766      6767      6770      6771
      6766      6767      6770      6772      6766      6767      6770      6778
      6767      6770      6772      6773      6767      6770      6778      6779
      6767      6770      6778      6780      6767      6770      6778      6781
      6768      6767      6770      6771      6768      6767      6770      6772
      6768      6767      6770      6778      6769      6767      6770      6771
      6769      6767      6770      6772      6769      6767      6770      6778
      6770      6772      6773      6774      6770      6772      6773      6775
      6770      6778      6781      6782      6771      6770      6772      6773
      6771      6770      6778      6779      6771      6770      6778      6780
      6771      6770      6778      6781      6772      6770      6778      6779
      6772      6770      6778      6780      6772      6770      6778      6781
      6772      6773      6775      6776      6772      6773      6775      6777
      6772      6773      6775      6787      6773      6772      6770      6778
      6773      6775      6787      6788      6773      6775      6787      6789
      6773      6775      6787      6790      6774      6773      6775      6776
      6774      6773      6775      6777      6774      6773      6775      6787
      6775      6787      6790      6791      6775      6787      6790      6792
      6775      6787      6790      6793      6776      6775      6787      6788
      6776      6775      6787      6789      6776      6775      6787      6790
      6777      6775      6787      6788      6777      6775      6787      6789
      6777      6775      6787      6790      6778      6781      6782      6783
      6778      6781      6782      6784      6779      6778      6781      6782
      6780      6778      6781      6782      6781      6782      6784      6785
      6781      6782      6784      6786      6781      6782      6784      6834
      6782      6784      6834      6835      6782      6784      6834      6836
      6782      6784      6834      6837      6783      6782      6784      6785
      6783      6782      6784      6786      6783      6782      6784      6834
      6784      6834      6837      6838      6784      6834      6837      6839
      6784      6834      6837      6840      6785      6784      6834      6835
      6785      6784      6834      6836      6785      6784      6834      6837
      6786      6784      6834      6835      6786      6784      6834      6836
      6786      6784      6834      6837      6787      6790      6793      6794
      6787      6790      6793      6795      6787      6790      6793      6796
      6788      6787      6790      6791      6788      6787      6790      6792
      6788      6787      6790      6793      6789      6787      6790      6791
      6789      6787      6790      6792      6789      6787      6790      6793
      6790      6793      6796      6797      6790      6793      6796      6798
      6790      6793      6796      6799      6791      6790      6793      6794
      6791      6790      6793      6795      6791      6790      6793      6796
      6792      6790      6793      6794      6792      6790      6793      6795
      6792      6790      6793      6796      6793      6796      6799      6800
      6793      6796      6799      6801      6793      6796      6799      6802
      6794      6793      6796      6797      6794      6793      6796      6798
      6794      6793      6796      6799      6795      6793      6796      6797
      6795      6793      6796      6798      6795      6793      6796      6799
      6796      6799      6802      6803      6796      6799      6802      6804
      6796      6799      6802      6805      6797      6796      6799      6800
      6797      6796      6799      6801      6797      6796      6799      6802
      6798      6796      6799      6800      6798      6796      6799      6801
      6798      6796      6799      6802      6799      6802      6805      6806
      6799      6802      6805      6807      6800      6799      6802      6803
      6800      6799      6802      6804      6800      6799      6802      6805
      6801      6799      6802      6803      6801      6799      6802      6804
      6801      6799      6802      6805      6802      6805      6807      6808
      6802      6805      6807      6809      6803      6802      6805      6806
      6803      6802      6805      6807      6804      6802      6805      6806
      6804      6802      6805      6807      6805      6807      6809      6810
      6805      6807      6809      6811      6805      6807      6809      6812
      6806      6805      6807      6808      6806      6805      6807      6809
      6807      6809      6812      6813      6807      6809      6812      6814
      6807      6809      6812      6815      6808      6807      6809      6810
      6808      6807      6809      6811      6808      6807      6809      6812
      6809      6812      6815      6816      6809      6812      6815      6817
      6809      6812      6815      6818      6810      6809      6812      6813
      6810      6809      6812      6814      6810      6809      6812      6815
      6811      6809      6812      6813      6811      6809      6812      6814
      6811      6809      6812      6815      6812      6815      6818      6819
      6812      6815      6818      6820      6812      6815      6818      6821
      6813      6812      6815      6816      6813      6812      6815      6817
      6813      6812      6815      6818      6814      6812      6815      6816
      6814      6812      6815      6817      6814      6812      6815      6818
      6815      6818      6821      6822      6815      6818      6821      6823
      6815      6818      6821      6824      6816      6815      6818      6819
      6816      6815      6818      6820      6816      6815      6818      6821
      6817      6815      6818      6819      6817      6815      6818      6820
      6817      6815      6818      6821      6818      6821      6824      6825
      6818      6821      6824      6826      6818      6821      6824      6827
      6819      6818      6821      6822      6819      6818      6821      6823
      6819      6818      6821      6824      6820      6818      6821      6822
      6820      6818      6821      6823      6820      6818      6821      6824
      6821      6824      6827      6828      6821      6824      6827      6829
      6821      6824      6827      6830      6822      6821      6824      6825
      6822      6821      6824      6826      6822      6821      6824      6827
      6823      6821      6824      6825      6823      6821      6824      6826
      6823      6821      6824      6827      6824      6827      6830      6831
      6824      6827      6830      6832      6824      6827      6830      6833
      6825      6824      6827      6828      6825      6824      6827      6829
      6825      6824      6827      6830      6826      6824      6827      6828
      6826      6824      6827      6829      6826      6824      6827      6830
      6828      6827      6830      6831      6828      6827      6830      6832
      6828      6827      6830      6833      6829      6827      6830      6831
      6829      6827      6830      6832      6829      6827      6830      6833
      6834      6837      6840      6841      6834      6837      6840      6842
      6834      6837      6840      6843      6835      6834      6837      6838
      6835      6834      6837      6839      6835      6834      6837      6840
      6836      6834      6837      6838      6836      6834      6837      6839
      6836      6834      6837      6840      6837      6840      6843      6844
      6837      6840      6843      6845      6837      6840      6843      6846
      6838      6837      6840      6841      6838      6837      6840      6842
      6838      6837      6840      6843      6839      6837      6840      6841
      6839      6837      6840      6842      6839      6837      6840      6843
      6840      6843      6846      6847      6840      6843      6846      6848
      6840      6843      6846      6849      6841      6840      6843      6844
      6841      6840      6843      6845      6841      6840      6843      6846
      6842      6840      6843      6844      6842      6840      6843      6845
      6842      6840      6843      6846      6843      6846      6849      6850
      6843      6846      6849      6851      6843      6846      6849      6852
      6844      6843      6846      6847      6844      6843      6846      6848
      6844      6843      6846      6849      6845      6843      6846      6847
      6845      6843      6846      6848      6845      6843      6846      6849
      6846      6849      6852      6853      6846      6849      6852      6854
      6846      6849      6852      6855      6847      6846      6849      6850
      6847      6846      6849      6851      6847      6846      6849      6852
      6848      6846      6849      6850      6848      6846      6849      6851
      6848      6846      6849      6852      6849      6852      6855      6856
      6849      6852      6855      6857      6849      6852      6855      6858
      6850      6849      6852      6853      6850      6849      6852      6854
      6850      6849      6852      6855      6851      6849      6852      6853
      6851      6849      6852      6854      6851      6849      6852      6855
      6852      6855      6858      6859      6852      6855      6858      6860
      6852      6855      6858      6861      6853      6852      6855      6856
      6853      6852      6855      6857      6853      6852      6855      6858
      6854      6852      6855      6856      6854      6852      6855      6857
      6854      6852      6855      6858      6855      6858      6861      6862
      6855      6858      6861      6863      6855      6858      6861      6864
      6856      6855      6858      6859      6856      6855      6858      6860
      6856      6855      6858      6861      6857      6855      6858      6859
      6857      6855      6858      6860      6857      6855      6858      6861
      6858      6861      6864      6865      6858      6861      6864      6866
      6858      6861      6864      6867      6859      6858      6861      6862
      6859      6858      6861      6863      6859      6858      6861      6864
      6860      6858      6861      6862      6860      6858      6861      6863
      6860      6858      6861      6864      6861      6864      6867      6868
      6861      6864      6867      6869      6861      6864      6867      6870
      6862      6861      6864      6865      6862      6861      6864      6866
      6862      6861      6864      6867      6863      6861      6864      6865
      6863      6861      6864      6866      6863      6861      6864      6867
      6864      6867      6870      6871      6864      6867      6870      6872
      6864      6867      6870      6873      6865      6864      6867      6868
      6865      6864      6867      6869      6865      6864      6867      6870
      6866      6864      6867      6868      6866      6864      6867      6869
      6866      6864      6867      6870      6867      6870      6873      6874
      6867      6870      6873      6875      6867      6870      6873      6876
      6868      6867      6870      6871      6868      6867      6870      6872
      6868      6867      6870      6873      6869      6867      6870      6871
      6869      6867      6870      6872      6869      6867      6870      6873
      6871      6870      6873      6874      6871      6870      6873      6875
      6871      6870      6873      6876      6872      6870      6873      6874
      6872      6870      6873      6875      6872      6870      6873      6876
      6877      6878      6893      6894      6877      6878      6893      6895
      6877      6878      6893      6899      6878      6877      6881      6882
      6878      6877      6881      6883      6878      6877      6881      6884
      6878      6877      6885      6886      6878      6877      6885      6887
      6878      6877      6885      6888      6878      6877      6889      6890
      6878      6877      6889      6891      6878      6877      6889      6892
      6878      6893      6899      6896      6879      6878      6877      6881
      6879      6878      6877      6885      6879      6878      6877      6889
      6879      6878      6893      6894      6879      6878      6893      6895
      6879      6878      6893      6899      6880      6878      6877      6881
      6880      6878      6877      6885      6880      6878      6877      6889
      6880      6878      6893      6894      6880      6878      6893      6895
      6880      6878      6893      6899      6881      6877      6878      6893
      6881      6877      6885      6886      6881      6877      6885      6887
      6881      6877      6885      6888      6881      6877      6889      6890
      6881      6877      6889      6891      6881      6877      6889      6892
      6882      6881      6877      6885      6882      6881      6877      6889
      6883      6881      6877      6885      6883      6881      6877      6889
      6884      6881      6877      6885      6884      6881      6877      6889
      6885      6877      6878      6893      6885      6877      6889      6890
      6885      6877      6889      6891      6885      6877      6889      6892
      6886      6885      6877      6889      6887      6885      6877      6889
      6888      6885      6877      6889      6889      6877      6878      6893
      6893      6899      6896      6897      6893      6899      6896      6898
      6893      6899      6896      6900      6894      6893      6899      6896
      6895      6893      6899      6896      6896      6900      6901      6902
      6896      6900      6901      6903      6896      6900      6901      6904
      6897      6896      6900      6901      6898      6896      6900      6901
      6899      6896      6900      6901      6900      6901      6904      6905
      6900      6901      6904      6906      6900      6901      6904      6912
      6901      6904      6906      6907      6901      6904      6912      6913
      6901      6904      6912      6914      6901      6904      6912      6915
      6902      6901      6904      6905      6902      6901      6904      6906
      6902      6901      6904      6912      6903      6901      6904      6905
      6903      6901      6904      6906      6903      6901      6904      6912
      6904      6906      6907      6908      6904      6906      6907      6909
      6904      6912      6915      6916      6905      6904      6906      6907
      6905      6904      6912      6913      6905      6904      6912      6914
      6905      6904      6912      6915      6906      6904      6912      6913
      6906      6904      6912      6914      6906      6904      6912      6915
      6906      6907      6909      6910      6906      6907      6909      6911
      6906      6907      6909      6921      6907      6906      6904      6912
      6907      6909      6921      6922      6907      6909      6921      6923
      6907      6909      6921      6924      6908      6907      6909      6910
      6908      6907      6909      6911      6908      6907      6909      6921
      6909      6921      6924      6925      6909      6921      6924      6926
      6909      6921      6924      6927      6910      6909      6921      6922
      6910      6909      6921      6923      6910      6909      6921      6924
      6911      6909      6921      6922      6911      6909      6921      6923
      6911      6909      6921      6924      6912      6915      6916      6917
      6912      6915      6916      6918      6913      6912      6915      6916
      6914      6912      6915      6916      6915      6916      6918      6919
      6915      6916      6918      6920      6915      6916      6918      6968
      6916      6918      6968      6969      6916      6918      6968      6970
      6916      6918      6968      6971      6917      6916      6918      6919
      6917      6916      6918      6920      6917      6916      6918      6968
      6918      6968      6971      6972      6918      6968      6971      6973
      6918      6968      6971      6974      6919      6918      6968      6969
      6919      6918      6968      6970      6919      6918      6968      6971
      6920      6918      6968      6969      6920      6918      6968      6970
      6920      6918      6968      6971      6921      6924      6927      6928
      6921      6924      6927      6929      6921      6924      6927      6930
      6922      6921      6924      6925      6922      6921      6924      6926
      6922      6921      6924      6927      6923      6921      6924      6925
      6923      6921      6924      6926      6923      6921      6924      6927
      6924      6927      6930      6931      6924      6927      6930      6932
      6924      6927      6930      6933      6925      6924      6927      6928
      6925      6924      6927      6929      6925      6924      6927      6930
      6926      6924      6927      6928      6926      6924      6927      6929
      6926      6924      6927      6930      6927      6930      6933      6934
      6927      6930      6933      6935      6927      6930      6933      6936
      6928      6927      6930      6931      6928      6927      6930      6932
      6928      6927      6930      6933      6929      6927      6930      6931
      6929      6927      6930      6932      6929      6927      6930      6933
      6930      6933      6936      6937      6930      6933      6936      6938
      6930      6933      6936      6939      6931      6930      6933      6934
      6931      6930      6933      6935      6931      6930      6933      6936
      6932      6930      6933      6934      6932      6930      6933      6935
      6932      6930      6933      6936      6933      6936      6939      6940
      6933      6936      6939      6941      6934      6933      6936      6937
      6934      6933      6936      6938      6934      6933      6936      6939
      6935      6933      6936      6937      6935      6933      6936      6938
      6935      6933      6936      6939      6936      6939      6941      6942
      6936      6939      6941      6943      6937      6936      6939      6940
      6937      6936      6939      6941      6938      6936      6939      6940
      6938      6936      6939      6941      6939      6941      6943      6944
      6939      6941      6943      6945      6939      6941      6943      6946
      6940      6939      6941      6942      6940      6939      6941      6943
      6941      6943      6946      6947      6941      6943      6946      6948
      6941      6943      6946      6949      6942      6941      6943      6944
      6942      6941      6943      6945      6942      6941      6943      6946
      6943      6946      6949      6950      6943      6946      6949      6951
      6943      6946      6949      6952      6944      6943      6946      6947
      6944      6943      6946      6948      6944      6943      6946      6949
      6945      6943      6946      6947      6945      6943      6946      6948
      6945      6943      6946      6949      6946      6949      6952      6953
      6946      6949      6952      6954      6946      6949      6952      6955
      6947      6946      6949      6950      6947      6946      6949      6951
      6947      6946      6949      6952      6948      6946      6949      6950
      6948      6946      6949      6951      6948      6946      6949      6952
      6949      6952      6955      6956      6949      6952      6955      6957
      6949      6952      6955      6958      6950      6949      6952      6953
      6950      6949      6952      6954      6950      6949      6952      6955
      6951      6949      6952      6953      6951      6949      6952      6954
      6951      6949      6952      6955      6952      6955      6958      6959
      6952      6955      6958      6960      6952      6955      6958      6961
      6953      6952      6955      6956      6953      6952      6955      6957
      6953      6952      6955      6958      6954      6952      6955      6956
      6954      6952      6955      6957      6954      6952      6955      6958
      6955      6958      6961      6962      6955      6958      6961      6963
      6955      6958      6961      6964      6956      6955      6958      6959
      6956      6955      6958      6960      6956      6955      6958      6961
      6957      6955      6958      6959      6957      6955      6958      6960
      6957      6955      6958      6961      6958      6961      6964      6965
      6958      6961      6964      6966      6958      6961      6964      6967
      6959      6958      6961      6962      6959      6958      6961      6963
      6959      6958      6961      6964      6960      6958      6961      6962
      6960      6958      6961      6963      6960      6958      6961      6964
      6962      6961      6964      6965      6962      6961      6964      6966
      6962      6961      6964      6967      6963      6961      6964      6965
      6963      6961      6964      6966      6963      6961      6964      6967
      6968      6971      6974      6975      6968      6971      6974      6976
      6968      6971      6974      6977      6969      6968      6971      6972
      6969      6968      6971      6973      6969      6968      6971      6974
      6970      6968      6971      6972      6970      6968      6971      6973
      6970      6968      6971      6974      6971      6974      6977      6978
      6971      6974      6977      6979      6971      6974      6977      6980
      6972      6971      6974      6975      6972      6971      6974      6976
      6972      6971      6974      6977      6973      6971      6974      6975
      6973      6971      6974      6976      6973      6971      6974      6977
      6974      6977      6980      6981      6974      6977      6980      6982
      6974      6977      6980      6983      6975      6974      6977      6978
      6975      6974      6977      6979      6975      6974      6977      6980
      6976      6974      6977      6978      6976      6974      6977      6979
      6976      6974      6977      6980      6977      6980      6983      6984
      6977      6980      6983      6985      6977      6980      6983      6986
      6978      6977      6980      6981      6978      6977      6980      6982
      6978      6977      6980      6983      6979      6977      6980      6981
      6979      6977      6980      6982      6979      6977      6980      6983
      6980      6983      6986      6987      6980      6983      6986      6988
      6980      6983      6986      6989      6981      6980      6983      6984
      6981      6980      6983      6985      6981      6980      6983      6986
      6982      6980      6983      6984      6982      6980      6983      6985
      6982      6980      6983      6986      6983      6986      6989      6990
      6983      6986      6989      6991      6983      6986      6989      6992
      6984      6983      6986      6987      6984      6983      6986      6988
      6984      6983      6986      6989      6985      6983      6986      6987
      6985      6983      6986      6988      6985      6983      6986      6989
      6986      6989      6992      6993      6986      6989      6992      6994
      6986      6989      6992      6995      6987      6986      6989      6990
      6987      6986      6989      6991      6987      6986      6989      6992
      6988      6986      6989      6990      6988      6986      6989      6991
      6988      6986      6989      6992      6989      6992      6995      6996
      6989      6992      6995      6997      6989      6992      6995      6998
      6990      6989      6992      6993      6990      6989      6992      6994
      6990      6989      6992      6995      6991      6989      6992      6993
      6991      6989      6992      6994      6991      6989      6992      6995
      6992      6995      6998      6999      6992      6995      6998      7000
      6992      6995      6998      7001      6993      6992      6995      6996
      6993      6992      6995      6997      6993      6992      6995      6998
      6994      6992      6995      6996      6994      6992      6995      6997
      6994      6992      6995      6998      6995      6998      7001      7002
      6995      6998      7001      7003      6995      6998      7001      7004
      6996      6995      6998      6999      6996      6995      6998      7000
      6996      6995      6998      7001      6997      6995      6998      6999
      6997      6995      6998      7000      6997      6995      6998      7001
      6998      7001      7004      7005      6998      7001      7004      7006
      6998      7001      7004      7007      6999      6998      7001      7002
      6999      6998      7001      7003      6999      6998      7001      7004
      7000      6998      7001      7002      7000      6998      7001      7003
      7000      6998      7001      7004      7001      7004      7007      7008
      7001      7004      7007      7009      7001      7004      7007      7010
      7002      7001      7004      7005      7002      7001      7004      7006
      7002      7001      7004      7007      7003      7001      7004      7005
      7003      7001      7004      7006      7003      7001      7004      7007
      7005      7004      7007      7008      7005      7004      7007      7009
      7005      7004      7007      7010      7006      7004      7007      7008
      7006      7004      7007      7009      7006      7004      7007      7010
      7011      7012      7027      7028      7011      7012      7027      7029
      7011      7012      7027      7033      7012      7011      7015      7016
      7012      7011      7015      7017      7012      7011      7015      7018
      7012      7011      7019      7020      7012      7011      7019      7021
      7012      7011      7019      7022      7012      7011      7023      7024
      7012      7011      7023      7025      7012      7011      7023      7026
      7012      7027      7033      7030      7013      7012      7011      7015
      7013      7012      7011      7019      7013      7012      7011      7023
      7013      7012      7027      7028      7013      7012      7027      7029
      7013      7012      7027      7033      7014      7012      7011      7015
      7014      7012      7011      7019      7014      7012      7011      7023
      7014      7012      7027      7028      7014      7012      7027      7029
      7014      7012      7027      7033      7015      7011      7012      7027
      7015      7011      7019      7020      7015      7011      7019      7021
      7015      7011      7019      7022      7015      7011      7023      7024
      7015      7011      7023      7025      7015      7011      7023      7026
      7016      7015      7011      7019      7016      7015      7011      7023
      7017      7015      7011      7019      7017      7015      7011      7023
      7018      7015      7011      7019      7018      7015      7011      7023
      7019      7011      7012      7027      7019      7011      7023      7024
      7019      7011      7023      7025      7019      7011      7023      7026
      7020      7019      7011      7023      7021      7019      7011      7023
      7022      7019      7011      7023      7023      7011      7012      7027
      7027      7033      7030      7031      7027      7033      7030      7032
      7027      7033      7030      7034      7028      7027      7033      7030
      7029      7027      7033      7030      7030      7034      7035      7036
      7030      7034      7035      7037      7030      7034      7035      7038
      7031      7030      7034      7035      7032      7030      7034      7035
      7033      7030      7034      7035      7034      7035      7038      7039
      7034      7035      7038      7040      7034      7035      7038      7046
      7035      7038      7040      7041      7035      7038      7046      7047
      7035      7038      7046      7048      7035      7038      7046      7049
      7036      7035      7038      7039      7036      7035      7038      7040
      7036      7035      7038      7046      7037      7035      7038      7039
      7037      7035      7038      7040      7037      7035      7038      7046
      7038      7040      7041      7042      7038      7040      7041      7043
      7038      7046      7049      7050      7039      7038      7040      7041
      7039      7038      7046      7047      7039      7038      7046      7048
      7039      7038      7046      7049      7040      7038      7046      7047
      7040      7038      7046      7048      7040      7038      7046      7049
      7040      7041      7043      7044      7040      7041      7043      7045
      7040      7041      7043      7055      7041      7040      7038      7046
      7041      7043      7055      7056      7041      7043      7055      7057
      7041      7043      7055      7058      7042      7041      7043      7044
      7042      7041      7043      7045      7042      7041      7043      7055
      7043      7055      7058      7059      7043      7055      7058      7060
      7043      7055      7058      7061      7044      7043      7055      7056
      7044      7043      7055      7057      7044      7043      7055      7058
      7045      7043      7055      7056      7045      7043      7055      7057
      7045      7043      7055      7058      7046      7049      7050      7051
      7046      7049      7050      7052      7047      7046      7049      7050
      7048      7046      7049      7050      7049      7050      7052      7053
      7049      7050      7052      7054      7049      7050      7052      7102
      7050      7052      7102      7103      7050      7052      7102      7104
      7050      7052      7102      7105      7051      7050      7052      7053
      7051      7050      7052      7054      7051      7050      7052      7102
      7052      7102      7105      7106      7052      7102      7105      7107
      7052      7102      7105      7108      7053      7052      7102      7103
      7053      7052      7102      7104      7053      7052      7102      7105
      7054      7052      7102      7103      7054      7052      7102      7104
      7054      7052      7102      7105      7055      7058      7061      7062
      7055      7058      7061      7063      7055      7058      7061      7064
      7056      7055      7058      7059      7056      7055      7058      7060
      7056      7055      7058      7061      7057      7055      7058      7059
      7057      7055      7058      7060      7057      7055      7058      7061
      7058      7061      7064      7065      7058      7061      7064      7066
      7058      7061      7064      7067      7059      7058      7061      7062
      7059      7058      7061      7063      7059      7058      7061      7064
      7060      7058      7061      7062      7060      7058      7061      7063
      7060      7058      7061      7064      7061      7064      7067      7068
      7061      7064      7067      7069      7061      7064      7067      7070
      7062      7061      7064      7065      7062      7061      7064      7066
      7062      7061      7064      7067      7063      7061      7064      7065
      7063      7061      7064      7066      7063      7061      7064      7067
      7064      7067      7070      7071      7064      7067      7070      7072
      7064      7067      7070      7073      7065      7064      7067      7068
      7065      7064      7067      7069      7065      7064      7067      7070
      7066      7064      7067      7068      7066      7064      7067      7069
      7066      7064      7067      7070      7067      7070      7073      7074
      7067      7070      7073      7075      7068      7067      7070      7071
      7068      7067      7070      7072      7068      7067      7070      7073
      7069      7067      7070      7071      7069      7067      7070      7072
      7069      7067      7070      7073      7070      7073      7075      7076
      7070      7073      7075      7077      7071      7070      7073      7074
      7071      7070      7073      7075      7072      7070      7073      7074
      7072      7070      7073      7075      7073      7075      7077      7078
      7073      7075      7077      7079      7073      7075      7077      7080
      7074      7073      7075      7076      7074      7073      7075      7077
      7075      7077      7080      7081      7075      7077      7080      7082
      7075      7077      7080      7083      7076      7075      7077      7078
      7076      7075      7077      7079      7076      7075      7077      7080
      7077      7080      7083      7084      7077      7080      7083      7085
      7077      7080      7083      7086      7078      7077      7080      7081
      7078      7077      7080      7082      7078      7077      7080      7083
      7079      7077      7080      7081      7079      7077      7080      7082
      7079      7077      7080      7083      7080      7083      7086      7087
      7080      7083      7086      7088      7080      7083      7086      7089
      7081      7080      7083      7084      7081      7080      7083      7085
      7081      7080      7083      7086      7082      7080      7083      7084
      7082      7080      7083      7085      7082      7080      7083      7086
      7083      7086      7089      7090      7083      7086      7089      7091
      7083      7086      7089      7092      7084      7083      7086      7087
      7084      7083      7086      7088      7084      7083      7086      7089
      7085      7083      7086      7087      7085      7083      7086      7088
      7085      7083      7086      7089      7086      7089      7092      7093
      7086      7089      7092      7094      7086      7089      7092      7095
      7087      7086      7089      7090      7087      7086      7089      7091
      7087      7086      7089      7092      7088      7086      7089      7090
      7088      7086      7089      7091      7088      7086      7089      7092
      7089      7092      7095      7096      7089      7092      7095      7097
      7089      7092      7095      7098      7090      7089      7092      7093
      7090      7089      7092      7094      7090      7089      7092      7095
      7091      7089      7092      7093      7091      7089      7092      7094
      7091      7089      7092      7095      7092      7095      7098      7099
      7092      7095      7098      7100      7092      7095      7098      7101
      7093      7092      7095      7096      7093      7092      7095      7097
      7093      7092      7095      7098      7094      7092      7095      7096
      7094      7092      7095      7097      7094      7092      7095      7098
      7096      7095      7098      7099      7096      7095      7098      7100
      7096      7095      7098      7101      7097      7095      7098      7099
      7097      7095      7098      7100      7097      7095      7098      7101
      7102      7105      7108      7109      7102      7105      7108      7110
      7102      7105      7108      7111      7103      7102      7105      7106
      7103      7102      7105      7107      7103      7102      7105      7108
      7104      7102      7105      7106      7104      7102      7105      7107
      7104      7102      7105      7108      7105      7108      7111      7112
      7105      7108      7111      7113      7105      7108      7111      7114
      7106      7105      7108      7109      7106      7105      7108      7110
      7106      7105      7108      7111      7107      7105      7108      7109
      7107      7105      7108      7110      7107      7105      7108      7111
      7108      7111      7114      7115      7108      7111      7114      7116
      7108      7111      7114      7117      7109      7108      7111      7112
      7109      7108      7111      7113      7109      7108      7111      7114
      7110      7108      7111      7112      7110      7108      7111      7113
      7110      7108      7111      7114      7111      7114      7117      7118
      7111      7114      7117      7119      7111      7114      7117      7120
      7112      7111      7114      7115      7112      7111      7114      7116
      7112      7111      7114      7117      7113      7111      7114      7115
      7113      7111      7114      7116      7113      7111      7114      7117
      7114      7117      7120      7121      7114      7117      7120      7122
      7114      7117      7120      7123      7115      7114      7117      7118
      7115      7114      7117      7119      7115      7114      7117      7120
      7116      7114      7117      7118      7116      7114      7117      7119
      7116      7114      7117      7120      7117      7120      7123      7124
      7117      7120      7123      7125      7117      7120      7123      7126
      7118      7117      7120      7121      7118      7117      7120      7122
      7118      7117      7120      7123      7119      7117      7120      7121
      7119      7117      7120      7122      7119      7117      7120      7123
      7120      7123      7126      7127      7120      7123      7126      7128
      7120      7123      7126      7129      7121      7120      7123      7124
      7121      7120      7123      7125      7121      7120      7123      7126
      7122      7120      7123      7124      7122      7120      7123      7125
      7122      7120      7123      7126      7123      7126      7129      7130
      7123      7126      7129      7131      7123      7126      7129      7132
      7124      7123      7126      7127      7124      7123      7126      7128
      7124      7123      7126      7129      7125      7123      7126      7127
      7125      7123      7126      7128      7125      7123      7126      7129
      7126      7129      7132      7133      7126      7129      7132      7134
      7126      7129      7132      7135      7127      7126      7129      7130
      7127      7126      7129      7131      7127      7126      7129      7132
      7128      7126      7129      7130      7128      7126      7129      7131
      7128      7126      7129      7132      7129      7132      7135      7136
      7129      7132      7135      7137      7129      7132      7135      7138
      7130      7129      7132      7133      7130      7129      7132      7134
      7130      7129      7132      7135      7131      7129      7132      7133
      7131      7129      7132      7134      7131      7129      7132      7135
      7132      7135      7138      7139      7132      7135      7138      7140
      7132      7135      7138      7141      7133      7132      7135      7136
      7133      7132      7135      7137      7133      7132      7135      7138
      7134      7132      7135      7136      7134      7132      7135      7137
      7134      7132      7135      7138      7135      7138      7141      7142
      7135      7138      7141      7143      7135      7138      7141      7144
      7136      7135      7138      7139      7136      7135      7138      7140
      7136      7135      7138      7141      7137      7135      7138      7139
      7137      7135      7138      7140      7137      7135      7138      7141
      7139      7138      7141      7142      7139      7138      7141      7143
      7139      7138      7141      7144      7140      7138      7141      7142
      7140      7138      7141      7143      7140      7138      7141      7144
      7145      7146      7161      7162      7145      7146      7161      7163
      7145      7146      7161      7167      7146      7145      7149      7150
      7146      7145      7149      7151      7146      7145      7149      7152
      7146      7145      7153      7154      7146      7145      7153      7155
      7146      7145      7153      7156      7146      7145      7157      7158
      7146      7145      7157      7159      7146      7145      7157      7160
      7146      7161      7167      7164      7147      7146      7145      7149
      7147      7146      7145      7153      7147      7146      7145      7157
      7147      7146      7161      7162      7147      7146      7161      7163
      7147      7146      7161      7167      7148      7146      7145      7149
      7148      7146      7145      7153      7148      7146      7145      7157
      7148      7146      7161      7162      7148      7146      7161      7163
      7148      7146      7161      7167      7149      7145      7146      7161
      7149      7145      7153      7154      7149      7145      7153      7155
      7149      7145      7153      7156      7149      7145      7157      7158
      7149      7145      7157      7159      7149      7145      7157      7160
      7150      7149      7145      7153      7150      7149      7145      7157
      7151      7149      7145      7153      7151      7149      7145      7157
      7152      7149      7145      7153      7152      7149      7145      7157
      7153      7145      7146      7161      7153      7145      7157      7158
      7153      7145      7157      7159      7153      7145      7157      7160
      7154      7153      7145      7157      7155      7153      7145      7157
      7156      7153      7145      7157      7157      7145      7146      7161
      7161      7167      7164      7165      7161      7167      7164      7166
      7161      7167      7164      7168      7162      7161      7167      7164
      7163      7161      7167      7164      7164      7168      7169      7170
      7164      7168      7169      7171      7164      7168      7169      7172
      7165      7164      7168      7169      7166      7164      7168      7169
      7167      7164      7168      7169      7168      7169      7172      7173
      7168      7169      7172      7174      7168      7169      7172      7180
      7169      7172      7174      7175      7169      7172      7180      7181
      7169      7172      7180      7182      7169      7172      7180      7183
      7170      7169      7172      7173      7170      7169      7172      7174
      7170      7169      7172      7180      7171      7169      7172      7173
      7171      7169      7172      7174      7171      7169      7172      7180
      7172      7174      7175      7176      7172      7174      7175      7177
      7172      7180      7183      7184      7173      7172      7174      7175
      7173      7172      7180      7181      7173      7172      7180      7182
      7173      7172      7180      7183      7174      7172      7180      7181
      7174      7172      7180      7182      7174      7172      7180      7183
      7174      7175      7177      7178      7174      7175      7177      7179
      7174      7175      7177      7189      7175      7174      7172      7180
      7175      7177      7189      7190      7175      7177      7189      7191
      7175      7177      7189      7192      7176      7175      7177      7178
      7176      7175      7177      7179      7176      7175      7177      7189
      7177      7189      7192      7193      7177      7189      7192      7194
      7177      7189      7192      7195      7178      7177      7189      7190
      7178      7177      7189      7191      7178      7177      7189      7192
      7179      7177      7189      7190      7179      7177      7189      7191
      7179      7177      7189      7192      7180      7183      7184      7185
      7180      7183      7184      7186      7181      7180      7183      7184
      7182      7180      7183      7184      7183      7184      7186      7187
      7183      7184      7186      7188      7183      7184      7186      7236
      7184      7186      7236      7237      7184      7186      7236      7238
      7184      7186      7236      7239      7185      7184      7186      7187
      7185      7184      7186      7188      7185      7184      7186      7236
      7186      7236      7239      7240      7186      7236      7239      7241
      7186      7236      7239      7242      7187      7186      7236      7237
      7187      7186      7236      7238      7187      7186      7236      7239
      7188      7186      7236      7237      7188      7186      7236      7238
      7188      7186      7236      7239      7189      7192      7195      7196
      7189      7192      7195      7197      7189      7192      7195      7198
      7190      7189      7192      7193      7190      7189      7192      7194
      7190      7189      7192      7195      7191      7189      7192      7193
      7191      7189      7192      7194      7191      7189      7192      7195
      7192      7195      7198      7199      7192      7195      7198      7200
      7192      7195      7198      7201      7193      7192      7195      7196
      7193      7192      7195      7197      7193      7192      7195      7198
      7194      7192      7195      7196      7194      7192      7195      7197
      7194      7192      7195      7198      7195      7198      7201      7202
      7195      7198      7201      7203      7195      7198      7201      7204
      7196      7195      7198      7199      7196      7195      7198      7200
      7196      7195      7198      7201      7197      7195      7198      7199
      7197      7195      7198      7200      7197      7195      7198      7201
      7198      7201      7204      7205      7198      7201      7204      7206
      7198      7201      7204      7207      7199      7198      7201      7202
      7199      7198      7201      7203      7199      7198      7201      7204
      7200      7198      7201      7202      7200      7198      7201      7203
      7200      7198      7201      7204      7201      7204      7207      7208
      7201      7204      7207      7209      7202      7201      7204      7205
      7202      7201      7204      7206      7202      7201      7204      7207
      7203      7201      7204      7205      7203      7201      7204      7206
      7203      7201      7204      7207      7204      7207      7209      7210
      7204      7207      7209      7211      7205      7204      7207      7208
      7205      7204      7207      7209      7206      7204      7207      7208
      7206      7204      7207      7209      7207      7209      7211      7212
      7207      7209      7211      7213      7207      7209      7211      7214
      7208      7207      7209      7210      7208      7207      7209      7211
      7209      7211      7214      7215      7209      7211      7214      7216
      7209      7211      7214      7217      7210      7209      7211      7212
      7210      7209      7211      7213      7210      7209      7211      7214
      7211      7214      7217      7218      7211      7214      7217      7219
      7211      7214      7217      7220      7212      7211      7214      7215
      7212      7211      7214      7216      7212      7211      7214      7217
      7213      7211      7214      7215      7213      7211      7214      7216
      7213      7211      7214      7217      7214      7217      7220      7221
      7214      7217      7220      7222      7214      7217      7220      7223
      7215      7214      7217      7218      7215      7214      7217      7219
      7215      7214      7217      7220      7216      7214      7217      7218
      7216      7214      7217      7219      7216      7214      7217      7220
      7217      7220      7223      7224      7217      7220      7223      7225
      7217      7220      7223      7226      7218      7217      7220      7221
      7218      7217      7220      7222      7218      7217      7220      7223
      7219      7217      7220      7221      7219      7217      7220      7222
      7219      7217      7220      7223      7220      7223      7226      7227
      7220      7223      7226      7228      7220      7223      7226      7229
      7221      7220      7223      7224      7221      7220      7223      7225
      7221      7220      7223      7226      7222      7220      7223      7224
      7222      7220      7223      7225      7222      7220      7223      7226
      7223      7226      7229      7230      7223      7226      7229      7231
      7223      7226      7229      7232      7224      7223      7226      7227
      7224      7223      7226      7228      7224      7223      7226      7229
      7225      7223      7226      7227      7225      7223      7226      7228
      7225      7223      7226      7229      7226      7229      7232      7233
      7226      7229      7232      7234      7226      7229      7232      7235
      7227      7226      7229      7230      7227      7226      7229      7231
      7227      7226      7229      7232      7228      7226      7229      7230
      7228      7226      7229      7231      7228      7226      7229      7232
      7230      7229      7232      7233      7230      7229      7232      7234
      7230      7229      7232      7235      7231      7229      7232      7233
      7231      7229      7232      7234      7231      7229      7232      7235
      7236      7239      7242      7243      7236      7239      7242      7244
      7236      7239      7242      7245      7237      7236      7239      7240
      7237      7236      7239      7241      7237      7236      7239      7242
      7238      7236      7239      7240      7238      7236      7239      7241
      7238      7236      7239      7242      7239      7242      7245      7246
      7239      7242      7245      7247      7239      7242      7245      7248
      7240      7239      7242      7243      7240      7239      7242      7244
      7240      7239      7242      7245      7241      7239      7242      7243
      7241      7239      7242      7244      7241      7239      7242      7245
      7242      7245      7248      7249      7242      7245      7248      7250
      7242      7245      7248      7251      7243      7242      7245      7246
      7243      7242      7245      7247      7243      7242      7245      7248
      7244      7242      7245      7246      7244      7242      7245      7247
      7244      7242      7245      7248      7245      7248      7251      7252
      7245      7248      7251      7253      7245      7248      7251      7254
      7246      7245      7248      7249      7246      7245      7248      7250
      7246      7245      7248      7251      7247      7245      7248      7249
      7247      7245      7248      7250      7247      7245      7248      7251
      7248      7251      7254      7255      7248      7251      7254      7256
      7248      7251      7254      7257      7249      7248      7251      7252
      7249      7248      7251      7253      7249      7248      7251      7254
      7250      7248      7251      7252      7250      7248      7251      7253
      7250      7248      7251      7254      7251      7254      7257      7258
      7251      7254      7257      7259      7251      7254      7257      7260
      7252      7251      7254      7255      7252      7251      7254      7256
      7252      7251      7254      7257      7253      7251      7254      7255
      7253      7251      7254      7256      7253      7251      7254      7257
      7254      7257      7260      7261      7254      7257      7260      7262
      7254      7257      7260      7263      7255      7254      7257      7258
      7255      7254      7257      7259      7255      7254      7257      7260
      7256      7254      7257      7258      7256      7254      7257      7259
      7256      7254      7257      7260      7257      7260      7263      7264
      7257      7260      7263      7265      7257      7260      7263      7266
      7258      7257      7260      7261      7258      7257      7260      7262
      7258      7257      7260      7263      7259      7257      7260      7261
      7259      7257      7260      7262      7259      7257      7260      7263
      7260      7263      7266      7267      7260      7263      7266      7268
      7260      7263      7266      7269      7261      7260      7263      7264
      7261      7260      7263      7265      7261      7260      7263      7266
      7262      7260      7263      7264      7262      7260      7263      7265
      7262      7260      7263      7266      7263      7266      7269      7270
      7263      7266      7269      7271      7263      7266      7269      7272
      7264      7263      7266      7267      7264      7263      7266      7268
      7264      7263      7266      7269      7265      7263      7266      7267
      7265      7263      7266      7268      7265      7263      7266      7269
      7266      7269      7272      7273      7266      7269      7272      7274
      7266      7269      7272      7275      7267      7266      7269      7270
      7267      7266      7269      7271      7267      7266      7269      7272
      7268      7266      7269      7270      7268      7266      7269      7271
      7268      7266      7269      7272      7269      7272      7275      7276
      7269      7272      7275      7277      7269      7272      7275      7278
      7270      7269      7272      7273      7270      7269      7272      7274
      7270      7269      7272      7275      7271      7269      7272      7273
      7271      7269      7272      7274      7271      7269      7272      7275
      7273      7272      7275      7276      7273      7272      7275      7277
      7273      7272      7275      7278      7274      7272      7275      7276
      7274      7272      7275      7277      7274      7272      7275      7278
      7279      7283      7285      7286      7279      7283      7285      7287
      7279      7283      7288      7289      7279      7283      7288      7290
      7279      7283      7288      7294      7280      7279      7283      7284
      7280      7279      7283      7285      7280      7279      7283      7288
      7281      7279      7283      7284      7281      7279      7283      7285
      7281      7279      7283      7288      7282      7279      7283      7284
      7282      7279      7283      7285      7282      7279      7283      7288
      7283      7288      7294      7291      7284      7283      7285      7286
      7284      7283      7285      7287      7284      7283      7288      7289
      7284      7283      7288      7290      7284      7283      7288      7294
      7285      7283      7288      7289      7285      7283      7288      7290
      7285      7283      7288      7294      7286      7285      7283      7288
      7287      7285      7283      7288      7288      7294      7291      7292
      7288      7294      7291      7293      7288      7294      7291      7295
      7289      7288      7294      7291      7290      7288      7294      7291
      7291      7295      7296      7297      7291      7295      7296      7298
      7291      7295      7296      7299      7292      7291      7295      7296
      7293      7291      7295      7296      7294      7291      7295      7296
      7295      7296      7299      7300      7295      7296      7299      7301
      7295      7296      7299      7307      7296      7299      7301      7302
      7296      7299      7307      7308      7296      7299      7307      7309
      7296      7299      7307      7310      7297      7296      7299      7300
      7297      7296      7299      7301      7297      7296      7299      7307
      7298      7296      7299      7300      7298      7296      7299      7301
      7298      7296      7299      7307      7299      7301      7302      7303
      7299      7301      7302      7304      7299      7307      7310      7311
      7300      7299      7301      7302      7300      7299      7307      7308
      7300      7299      7307      7309      7300      7299      7307      7310
      7301      7299      7307      7308      7301      7299      7307      7309
      7301      7299      7307      7310      7301      7302      7304      7305
      7301      7302      7304      7306      7301      7302      7304      7316
      7302      7301      7299      7307      7302      7304      7316      7317
      7302      7304      7316      7318      7302      7304      7316      7319
      7303      7302      7304      7305      7303      7302      7304      7306
      7303      7302      7304      7316      7304      7316      7319      7320
      7304      7316      7319      7321      7304      7316      7319      7322
      7305      7304      7316      7317      7305      7304      7316      7318
      7305      7304      7316      7319      7306      7304      7316      7317
      7306      7304      7316      7318      7306      7304      7316      7319
      7307      7310      7311      7312      7307      7310      7311      7313
      7308      7307      7310      7311      7309      7307      7310      7311
      7310      7311      7313      7314      7310      7311      7313      7315
      7310      7311      7313      7363      7311      7313      7363      7364
      7311      7313      7363      7365      7311      7313      7363      7366
      7312      7311      7313      7314      7312      7311      7313      7315
      7312      7311      7313      7363      7313      7363      7366      7367
      7313      7363      7366      7368      7313      7363      7366      7369
      7314      7313      7363      7364      7314      7313      7363      7365
      7314      7313      7363      7366      7315      7313      7363      7364
      7315      7313      7363      7365      7315      7313      7363      7366
      7316      7319      7322      7323      7316      7319      7322      7324
      7316      7319      7322      7325      7317      7316      7319      7320
      7317      7316      7319      7321      7317      7316      7319      7322
      7318      7316      7319      7320      7318      7316      7319      7321
      7318      7316      7319      7322      7319      7322      7325      7326
      7319      7322      7325      7327      7319      7322      7325      7328
      7320      7319      7322      7323      7320      7319      7322      7324
      7320      7319      7322      7325      7321      7319      7322      7323
      7321      7319      7322      7324      7321      7319      7322      7325
      7322      7325      7328      7329      7322      7325      7328      7330
      7322      7325      7328      7331      7323      7322      7325      7326
      7323      7322      7325      7327      7323      7322      7325      7328
      7324      7322      7325      7326      7324      7322      7325      7327
      7324      7322      7325      7328      7325      7328      7331      7332
      7325      7328      7331      7333      7325      7328      7331      7334
      7326      7325      7328      7329      7326      7325      7328      7330
      7326      7325      7328      7331      7327      7325      7328      7329
      7327      7325      7328      7330      7327      7325      7328      7331
      7328      7331      7334      7335      7328      7331      7334      7336
      7329      7328      7331      7332      7329      7328      7331      7333
      7329      7328      7331      7334      7330      7328      7331      7332
      7330      7328      7331      7333      7330      7328      7331      7334
      7331      7334      7336      7337      7331      7334      7336      7338
      7332      7331      7334      7335      7332      7331      7334      7336
      7333      7331      7334      7335      7333      7331      7334      7336
      7334      7336      7338      7339      7334      7336      7338      7340
      7334      7336      7338      7341      7335      7334      7336      7337
      7335      7334      7336      7338      7336      7338      7341      7342
      7336      7338      7341      7343      7336      7338      7341      7344
      7337      7336      7338      7339      7337      7336      7338      7340
      7337      7336      7338      7341      7338      7341      7344      7345
      7338      7341      7344      7346      7338      7341      7344      7347
      7339      7338      7341      7342      7339      7338      7341      7343
      7339      7338      7341      7344      7340      7338      7341      7342
      7340      7338      7341      7343      7340      7338      7341      7344
      7341      7344      7347      7348      7341      7344      7347      7349
      7341      7344      7347      7350      7342      7341      7344      7345
      7342      7341      7344      7346      7342      7341      7344      7347
      7343      7341      7344      7345      7343      7341      7344      7346
      7343      7341      7344      7347      7344      7347      7350      7351
      7344      7347      7350      7352      7344      7347      7350      7353
      7345      7344      7347      7348      7345      7344      7347      7349
      7345      7344      7347      7350      7346      7344      7347      7348
      7346      7344      7347      7349      7346      7344      7347      7350
      7347      7350      7353      7354      7347      7350      7353      7355
      7347      7350      7353      7356      7348      7347      7350      7351
      7348      7347      7350      7352      7348      7347      7350      7353
      7349      7347      7350      7351      7349      7347      7350      7352
      7349      7347      7350      7353      7350      7353      7356      7357
      7350      7353      7356      7358      7350      7353      7356      7359
      7351      7350      7353      7354      7351      7350      7353      7355
      7351      7350      7353      7356      7352      7350      7353      7354
      7352      7350      7353      7355      7352      7350      7353      7356
      7353      7356      7359      7360      7353      7356      7359      7361
      7353      7356      7359      7362      7354      7353      7356      7357
      7354      7353      7356      7358      7354      7353      7356      7359
      7355      7353      7356      7357      7355      7353      7356      7358
      7355      7353      7356      7359      7357      7356      7359      7360
      7357      7356      7359      7361      7357      7356      7359      7362
      7358      7356      7359      7360      7358      7356      7359      7361
      7358      7356      7359      7362      7363      7366      7369      7370
      7363      7366      7369      7371      7363      7366      7369      7372
      7364      7363      7366      7367      7364      7363      7366      7368
      7364      7363      7366      7369      7365      7363      7366      7367
      7365      7363      7366      7368      7365      7363      7366      7369
      7366      7369      7372      7373      7366      7369      7372      7374
      7366      7369      7372      7375      7367      7366      7369      7370
      7367      7366      7369      7371      7367      7366      7369      7372
      7368      7366      7369      7370      7368      7366      7369      7371
      7368      7366      7369      7372      7369      7372      7375      7376
      7369      7372      7375      7377      7369      7372      7375      7378
      7370      7369      7372      7373      7370      7369      7372      7374
      7370      7369      7372      7375      7371      7369      7372      7373
      7371      7369      7372      7374      7371      7369      7372      7375
      7372      7375      7378      7379      7372      7375      7378      7380
      7372      7375      7378      7381      7373      7372      7375      7376
      7373      7372      7375      7377      7373      7372      7375      7378
      7374      7372      7375      7376      7374      7372      7375      7377
      7374      7372      7375      7378      7375      7378      7381      7382
      7375      7378      7381      7383      7375      7378      7381      7384
      7376      7375      7378      7379      7376      7375      7378      7380
      7376      7375      7378      7381      7377      7375      7378      7379
      7377      7375      7378      7380      7377      7375      7378      7381
      7378      7381      7384      7385      7378      7381      7384      7386
      7378      7381      7384      7387      7379      7378      7381      7382
      7379      7378      7381      7383      7379      7378      7381      7384
      7380      7378      7381      7382      7380      7378      7381      7383
      7380      7378      7381      7384      7381      7384      7387      7388
      7381      7384      7387      7389      7381      7384      7387      7390
      7382      7381      7384      7385      7382      7381      7384      7386
      7382      7381      7384      7387      7383      7381      7384      7385
      7383      7381      7384      7386      7383      7381      7384      7387
      7384      7387      7390      7391      7384      7387      7390      7392
      7384      7387      7390      7393      7385      7384      7387      7388
      7385      7384      7387      7389      7385      7384      7387      7390
      7386      7384      7387      7388      7386      7384      7387      7389
      7386      7384      7387      7390      7387      7390      7393      7394
      7387      7390      7393      7395      7387      7390      7393      7396
      7388      7387      7390      7391      7388      7387      7390      7392
      7388      7387      7390      7393      7389      7387      7390      7391
      7389      7387      7390      7392      7389      7387      7390      7393
      7390      7393      7396      7397      7390      7393      7396      7398
      7390      7393      7396      7399      7391      7390      7393      7394
      7391      7390      7393      7395      7391      7390      7393      7396
      7392      7390      7393      7394      7392      7390      7393      7395
      7392      7390      7393      7396      7393      7396      7399      7400
      7393      7396      7399      7401      7393      7396      7399      7402
      7394      7393      7396      7397      7394      7393      7396      7398
      7394      7393      7396      7399      7395      7393      7396      7397
      7395      7393      7396      7398      7395      7393      7396      7399
      7396      7399      7402      7403      7396      7399      7402      7404
      7396      7399      7402      7405      7397      7396      7399      7400
      7397      7396      7399      7401      7397      7396      7399      7402
      7398      7396      7399      7400      7398      7396      7399      7401
      7398      7396      7399      7402      7400      7399      7402      7403
      7400      7399      7402      7404      7400      7399      7402      7405
      7401      7399      7402      7403      7401      7399      7402      7404
      7401      7399      7402      7405      7406      7407      7422      7423
      7406      7407      7422      7424      7406      7407      7422      7428
      7407      7406      7410      7411      7407      7406      7410      7412
      7407      7406      7410      7413      7407      7406      7414      7415
      7407      7406      7414      7416      7407      7406      7414      7417
      7407      7406      7418      7419      7407      7406      7418      7420
      7407      7406      7418      7421      7407      7422      7428      7425
      7408      7407      7406      7410      7408      7407      7406      7414
      7408      7407      7406      7418      7408      7407      7422      7423
      7408      7407      7422      7424      7408      7407      7422      7428
      7409      7407      7406      7410      7409      7407      7406      7414
      7409      7407      7406      7418      7409      7407      7422      7423
      7409      7407      7422      7424      7409      7407      7422      7428
      7410      7406      7407      7422      7410      7406      7414      7415
      7410      7406      7414      7416      7410      7406      7414      7417
      7410      7406      7418      7419      7410      7406      7418      7420
      7410      7406      7418      7421      7411      7410      7406      7414
      7411      7410      7406      7418      7412      7410      7406      7414
      7412      7410      7406      7418      7413      7410      7406      7414
      7413      7410      7406      7418      7414      7406      7407      7422
      7414      7406      7418      7419      7414      7406      7418      7420
      7414      7406      7418      7421      7415      7414      7406      7418
      7416      7414      7406      7418      7417      7414      7406      7418
      7418      7406      7407      7422      7422      7428      7425      7426
      7422      7428      7425      7427      7422      7428      7425      7429
      7423      7422      7428      7425      7424      7422      7428      7425
      7425      7429      7430      7431      7425      7429      7430      7432
      7425      7429      7430      7433      7426      7425      7429      7430
      7427      7425      7429      7430      7428      7425      7429      7430
      7429      7430      7433      7434      7429      7430      7433      7435
      7429      7430      7433      7441      7430      7433      7435      7436
      7430      7433      7441      7442      7430      7433      7441      7443
      7430      7433      7441      7444      7431      7430      7433      7434
      7431      7430      7433      7435      7431      7430      7433      7441
      7432      7430      7433      7434      7432      7430      7433      7435
      7432      7430      7433      7441      7433      7435      7436      7437
      7433      7435      7436      7438      7433      7441      7444      7445
      7434      7433      7435      7436      7434      7433      7441      7442
      7434      7433      7441      7443      7434      7433      7441      7444
      7435      7433      7441      7442      7435      7433      7441      7443
      7435      7433      7441      7444      7435      7436      7438      7439
      7435      7436      7438      7440      7435      7436      7438      7450
      7436      7435      7433      7441      7436      7438      7450      7451
      7436      7438      7450      7452      7436      7438      7450      7453
      7437      7436      7438      7439      7437      7436      7438      7440
      7437      7436      7438      7450      7438      7450      7453      7454
      7438      7450      7453      7455      7438      7450      7453      7456
      7439      7438      7450      7451      7439      7438      7450      7452
      7439      7438      7450      7453      7440      7438      7450      7451
      7440      7438      7450      7452      7440      7438      7450      7453
      7441      7444      7445      7446      7441      7444      7445      7447
      7442      7441      7444      7445      7443      7441      7444      7445
      7444      7445      7447      7448      7444      7445      7447      7449
      7444      7445      7447      7497      7445      7447      7497      7498
      7445      7447      7497      7499      7445      7447      7497      7500
      7446      7445      7447      7448      7446      7445      7447      7449
      7446      7445      7447      7497      7447      7497      7500      7501
      7447      7497      7500      7502      7447      7497      7500      7503
      7448      7447      7497      7498      7448      7447      7497      7499
      7448      7447      7497      7500      7449      7447      7497      7498
      7449      7447      7497      7499      7449      7447      7497      7500
      7450      7453      7456      7457      7450      7453      7456      7458
      7450      7453      7456      7459      7451      7450      7453      7454
      7451      7450      7453      7455      7451      7450      7453      7456
      7452      7450      7453      7454      7452      7450      7453      7455
      7452      7450      7453      7456      7453      7456      7459      7460
      7453      7456      7459      7461      7453      7456      7459      7462
      7454      7453      7456      7457      7454      7453      7456      7458
      7454      7453      7456      7459      7455      7453      7456      7457
      7455      7453      7456      7458      7455      7453      7456      7459
      7456      7459      7462      7463      7456      7459      7462      7464
      7456      7459      7462      7465      7457      7456      7459      7460
      7457      7456      7459      7461      7457      7456      7459      7462
      7458      7456      7459      7460      7458      7456      7459      7461
      7458      7456      7459      7462      7459      7462      7465      7466
      7459      7462      7465      7467      7459      7462      7465      7468
      7460      7459      7462      7463      7460      7459      7462      7464
      7460      7459      7462      7465      7461      7459      7462      7463
      7461      7459      7462      7464      7461      7459      7462      7465
      7462      7465      7468      7469      7462      7465      7468      7470
      7463      7462      7465      7466      7463      7462      7465      7467
      7463      7462      7465      7468      7464      7462      7465      7466
      7464      7462      7465      7467      7464      7462      7465      7468
      7465      7468      7470      7471      7465      7468      7470      7472
      7466      7465      7468      7469      7466      7465      7468      7470
      7467      7465      7468      7469      7467      7465      7468      7470
      7468      7470      7472      7473      7468      7470      7472      7474
      7468      7470      7472      7475      7469      7468      7470      7471
      7469      7468      7470      7472      7470      7472      7475      7476
      7470      7472      7475      7477      7470      7472      7475      7478
      7471      7470      7472      7473      7471      7470      7472      7474
      7471      7470      7472      7475      7472      7475      7478      7479
      7472      7475      7478      7480      7472      7475      7478      7481
      7473      7472      7475      7476      7473      7472      7475      7477
      7473      7472      7475      7478      7474      7472      7475      7476
      7474      7472      7475      7477      7474      7472      7475      7478
      7475      7478      7481      7482      7475      7478      7481      7483
      7475      7478      7481      7484      7476      7475      7478      7479
      7476      7475      7478      7480      7476      7475      7478      7481
      7477      7475      7478      7479      7477      7475      7478      7480
      7477      7475      7478      7481      7478      7481      7484      7485
      7478      7481      7484      7486      7478      7481      7484      7487
      7479      7478      7481      7482      7479      7478      7481      7483
      7479      7478      7481      7484      7480      7478      7481      7482
      7480      7478      7481      7483      7480      7478      7481      7484
      7481      7484      7487      7488      7481      7484      7487      7489
      7481      7484      7487      7490      7482      7481      7484      7485
      7482      7481      7484      7486      7482      7481      7484      7487
      7483      7481      7484      7485      7483      7481      7484      7486
      7483      7481      7484      7487      7484      7487      7490      7491
      7484      7487      7490      7492      7484      7487      7490      7493
      7485      7484      7487      7488      7485      7484      7487      7489
      7485      7484      7487      7490      7486      7484      7487      7488
      7486      7484      7487      7489      7486      7484      7487      7490
      7487      7490      7493      7494      7487      7490      7493      7495
      7487      7490      7493      7496      7488      7487      7490      7491
      7488      7487      7490      7492      7488      7487      7490      7493
      7489      7487      7490      7491      7489      7487      7490      7492
      7489      7487      7490      7493      7491      7490      7493      7494
      7491      7490      7493      7495      7491      7490      7493      7496
      7492      7490      7493      7494      7492      7490      7493      7495
      7492      7490      7493      7496      7497      7500      7503      7504
      7497      7500      7503      7505      7497      7500      7503      7506
      7498      7497      7500      7501      7498      7497      7500      7502
      7498      7497      7500      7503      7499      7497      7500      7501
      7499      7497      7500      7502      7499      7497      7500      7503
      7500      7503      7506      7507      7500      7503      7506      7508
      7500      7503      7506      7509      7501      7500      7503      7504
      7501      7500      7503      7505      7501      7500      7503      7506
      7502      7500      7503      7504      7502      7500      7503      7505
      7502      7500      7503      7506      7503      7506      7509      7510
      7503      7506      7509      7511      7503      7506      7509      7512
      7504      7503      7506      7507      7504      7503      7506      7508
      7504      7503      7506      7509      7505      7503      7506      7507
      7505      7503      7506      7508      7505      7503      7506      7509
      7506      7509      7512      7513      7506      7509      7512      7514
      7506      7509      7512      7515      7507      7506      7509      7510
      7507      7506      7509      7511      7507      7506      7509      7512
      7508      7506      7509      7510      7508      7506      7509      7511
      7508      7506      7509      7512      7509      7512      7515      7516
      7509      7512      7515      7517      7509      7512      7515      7518
      7510      7509      7512      7513      7510      7509      7512      7514
      7510      7509      7512      7515      7511      7509      7512      7513
      7511      7509      7512      7514      7511      7509      7512      7515
      7512      7515      7518      7519      7512      7515      7518      7520
      7512      7515      7518      7521      7513      7512      7515      7516
      7513      7512      7515      7517      7513      7512      7515      7518
      7514      7512      7515      7516      7514      7512      7515      7517
      7514      7512      7515      7518      7515      7518      7521      7522
      7515      7518      7521      7523      7515      7518      7521      7524
      7516      7515      7518      7519      7516      7515      7518      7520
      7516      7515      7518      7521      7517      7515      7518      7519
      7517      7515      7518      7520      7517      7515      7518      7521
      7518      7521      7524      7525      7518      7521      7524      7526
      7518      7521      7524      7527      7519      7518      7521      7522
      7519      7518      7521      7523      7519      7518      7521      7524
      7520      7518      7521      7522      7520      7518      7521      7523
      7520      7518      7521      7524      7521      7524      7527      7528
      7521      7524      7527      7529      7521      7524      7527      7530
      7522      7521      7524      7525      7522      7521      7524      7526
      7522      7521      7524      7527      7523      7521      7524      7525
      7523      7521      7524      7526      7523      7521      7524      7527
      7524      7527      7530      7531      7524      7527      7530      7532
      7524      7527      7530      7533      7525      7524      7527      7528
      7525      7524      7527      7529      7525      7524      7527      7530
      7526      7524      7527      7528      7526      7524      7527      7529
      7526      7524      7527      7530      7527      7530      7533      7534
      7527      7530      7533      7535      7527      7530      7533      7536
      7528      7527      7530      7531      7528      7527      7530      7532
      7528      7527      7530      7533      7529      7527      7530      7531
      7529      7527      7530      7532      7529      7527      7530      7533
      7530      7533      7536      7537      7530      7533      7536      7538
      7530      7533      7536      7539      7531      7530      7533      7534
      7531      7530      7533      7535      7531      7530      7533      7536
      7532      7530      7533      7534      7532      7530      7533      7535
      7532      7530      7533      7536      7534      7533      7536      7537
      7534      7533      7536      7538      7534      7533      7536      7539
      7535      7533      7536      7537      7535      7533      7536      7538
      7535      7533      7536      7539      7540      7541      7556      7557
      7540      7541      7556      7558      7540      7541      7556      7562
      7541      7540      7544      7545      7541      7540      7544      7546
      7541      7540      7544      7547      7541      7540      7548      7549
      7541      7540      7548      7550      7541      7540      7548      7551
      7541      7540      7552      7553      7541      7540      7552      7554
      7541      7540      7552      7555      7541      7556      7562      7559
      7542      7541      7540      7544      7542      7541      7540      7548
      7542      7541      7540      7552      7542      7541      7556      7557
      7542      7541      7556      7558      7542      7541      7556      7562
      7543      7541      7540      7544      7543      7541      7540      7548
      7543      7541      7540      7552      7543      7541      7556      7557
      7543      7541      7556      7558      7543      7541      7556      7562
      7544      7540      7541      7556      7544      7540      7548      7549
      7544      7540      7548      7550      7544      7540      7548      7551
      7544      7540      7552      7553      7544      7540      7552      7554
      7544      7540      7552      7555      7545      7544      7540      7548
      7545      7544      7540      7552      7546      7544      7540      7548
      7546      7544      7540      7552      7547      7544      7540      7548
      7547      7544      7540      7552      7548      7540      7541      7556
      7548      7540      7552      7553      7548      7540      7552      7554
      7548      7540      7552      7555      7549      7548      7540      7552
      7550      7548      7540      7552      7551      7548      7540      7552
      7552      7540      7541      7556      7556      7562      7559      7560
      7556      7562      7559      7561      7556      7562      7559      7563
      7557      7556      7562      7559      7558      7556      7562      7559
      7559      7563      7564      7565      7559      7563      7564      7566
      7559      7563      7564      7567      7560      7559      7563      7564
      7561      7559      7563      7564      7562      7559      7563      7564
      7563      7564      7567      7568      7563      7564      7567      7569
      7563      7564      7567      7575      7564      7567      7569      7570
      7564      7567      7575      7576      7564      7567      7575      7577
      7564      7567      7575      7578      7565      7564      7567      7568
      7565      7564      7567      7569      7565      7564      7567      7575
      7566      7564      7567      7568      7566      7564      7567      7569
      7566      7564      7567      7575      7567      7569      7570      7571
      7567      7569      7570      7572      7567      7575      7578      7579
      7568      7567      7569      7570      7568      7567      7575      7576
      7568      7567      7575      7577      7568      7567      7575      7578
      7569      7567      7575      7576      7569      7567      7575      7577
      7569      7567      7575      7578      7569      7570      7572      7573
      7569      7570      7572      7574      7569      7570      7572      7584
      7570      7569      7567      7575      7570      7572      7584      7585
      7570      7572      7584      7586      7570      7572      7584      7587
      7571      7570      7572      7573      7571      7570      7572      7574
      7571      7570      7572      7584      7572      7584      7587      7588
      7572      7584      7587      7589      7572      7584      7587      7590
      7573      7572      7584      7585      7573      7572      7584      7586
      7573      7572      7584      7587      7574      7572      7584      7585
      7574      7572      7584      7586      7574      7572      7584      7587
      7575      7578      7579      7580      7575      7578      7579      7581
      7576      7575      7578      7579      7577      7575      7578      7579
      7578      7579      7581      7582      7578      7579      7581      7583
      7578      7579      7581      7631      7579      7581      7631      7632
      7579      7581      7631      7633      7579      7581      7631      7634
      7580      7579      7581      7582      7580      7579      7581      7583
      7580      7579      7581      7631      7581      7631      7634      7635
      7581      7631      7634      7636      7581      7631      7634      7637
      7582      7581      7631      7632      7582      7581      7631      7633
      7582      7581      7631      7634      7583      7581      7631      7632
      7583      7581      7631      7633      7583      7581      7631      7634
      7584      7587      7590      7591      7584      7587      7590      7592
      7584      7587      7590      7593      7585      7584      7587      7588
      7585      7584      7587      7589      7585      7584      7587      7590
      7586      7584      7587      7588      7586      7584      7587      7589
      7586      7584      7587      7590      7587      7590      7593      7594
      7587      7590      7593      7595      7587      7590      7593      7596
      7588      7587      7590      7591      7588      7587      7590      7592
      7588      7587      7590      7593      7589      7587      7590      7591
      7589      7587      7590      7592      7589      7587      7590      7593
      7590      7593      7596      7597      7590      7593      7596      7598
      7590      7593      7596      7599      7591      7590      7593      7594
      7591      7590      7593      7595      7591      7590      7593      7596
      7592      7590      7593      7594      7592      7590      7593      7595
      7592      7590      7593      7596      7593      7596      7599      7600
      7593      7596      7599      7601      7593      7596      7599      7602
      7594      7593      7596      7597      7594      7593      7596      7598
      7594      7593      7596      7599      7595      7593      7596      7597
      7595      7593      7596      7598      7595      7593      7596      7599
      7596      7599      7602      7603      7596      7599      7602      7604
      7597      7596      7599      7600      7597      7596      7599      7601
      7597      7596      7599      7602      7598      7596      7599      7600
      7598      7596      7599      7601      7598      7596      7599      7602
      7599      7602      7604      7605      7599      7602      7604      7606
      7600      7599      7602      7603      7600      7599      7602      7604
      7601      7599      7602      7603      7601      7599      7602      7604
      7602      7604      7606      7607      7602      7604      7606      7608
      7602      7604      7606      7609      7603      7602      7604      7605
      7603      7602      7604      7606      7604      7606      7609      7610
      7604      7606      7609      7611      7604      7606      7609      7612
      7605      7604      7606      7607      7605      7604      7606      7608
      7605      7604      7606      7609      7606      7609      7612      7613
      7606      7609      7612      7614      7606      7609      7612      7615
      7607      7606      7609      7610      7607      7606      7609      7611
      7607      7606      7609      7612      7608      7606      7609      7610
      7608      7606      7609      7611      7608      7606      7609      7612
      7609      7612      7615      7616      7609      7612      7615      7617
      7609      7612      7615      7618      7610      7609      7612      7613
      7610      7609      7612      7614      7610      7609      7612      7615
      7611      7609      7612      7613      7611      7609      7612      7614
      7611      7609      7612      7615      7612      7615      7618      7619
      7612      7615      7618      7620      7612      7615      7618      7621
      7613      7612      7615      7616      7613      7612      7615      7617
      7613      7612      7615      7618      7614      7612      7615      7616
      7614      7612      7615      7617      7614      7612      7615      7618
      7615      7618      7621      7622      7615      7618      7621      7623
      7615      7618      7621      7624      7616      7615      7618      7619
      7616      7615      7618      7620      7616      7615      7618      7621
      7617      7615      7618      7619      7617      7615      7618      7620
      7617      7615      7618      7621      7618      7621      7624      7625
      7618      7621      7624      7626      7618      7621      7624      7627
      7619      7618      7621      7622      7619      7618      7621      7623
      7619      7618      7621      7624      7620      7618      7621      7622
      7620      7618      7621      7623      7620      7618      7621      7624
      7621      7624      7627      7628      7621      7624      7627      7629
      7621      7624      7627      7630      7622      7621      7624      7625
      7622      7621      7624      7626      7622      7621      7624      7627
      7623      7621      7624      7625      7623      7621      7624      7626
      7623      7621      7624      7627      7625      7624      7627      7628
      7625      7624      7627      7629      7625      7624      7627      7630
      7626      7624      7627      7628      7626      7624      7627      7629
      7626      7624      7627      7630      7631      7634      7637      7638
      7631      7634      7637      7639      7631      7634      7637      7640
      7632      7631      7634      7635      7632      7631      7634      7636
      7632      7631      7634      7637      7633      7631      7634      7635
      7633      7631      7634      7636      7633      7631      7634      7637
      7634      7637      7640      7641      7634      7637      7640      7642
      7634      7637      7640      7643      7635      7634      7637      7638
      7635      7634      7637      7639      7635      7634      7637      7640
      7636      7634      7637      7638      7636      7634      7637      7639
      7636      7634      7637      7640      7637      7640      7643      7644
      7637      7640      7643      7645      7637      7640      7643      7646
      7638      7637      7640      7641      7638      7637      7640      7642
      7638      7637      7640      7643      7639      7637      7640      7641
      7639      7637      7640      7642      7639      7637      7640      7643
      7640      7643      7646      7647      7640      7643      7646      7648
      7640      7643      7646      7649      7641      7640      7643      7644
      7641      7640      7643      7645      7641      7640      7643      7646
      7642      7640      7643      7644      7642      7640      7643      7645
      7642      7640      7643      7646      7643      7646      7649      7650
      7643      7646      7649      7651      7643      7646      7649      7652
      7644      7643      7646      7647      7644      7643      7646      7648
      7644      7643      7646      7649      7645      7643      7646      7647
      7645      7643      7646      7648      7645      7643      7646      7649
      7646      7649      7652      7653      7646      7649      7652      7654
      7646      7649      7652      7655      7647      7646      7649      7650
      7647      7646      7649      7651      7647      7646      7649      7652
      7648      7646      7649      7650      7648      7646      7649      7651
      7648      7646      7649      7652      7649      7652      7655      7656
      7649      7652      7655      7657      7649      7652      7655      7658
      7650      7649      7652      7653      7650      7649      7652      7654
      7650      7649      7652      7655      7651      7649      7652      7653
      7651      7649      7652      7654      7651      7649      7652      7655
      7652      7655      7658      7659      7652      7655      7658      7660
      7652      7655      7658      7661      7653      7652      7655      7656
      7653      7652      7655      7657      7653      7652      7655      7658
      7654      7652      7655      7656      7654      7652      7655      7657
      7654      7652      7655      7658      7655      7658      7661      7662
      7655      7658      7661      7663      7655      7658      7661      7664
      7656      7655      7658      7659      7656      7655      7658      7660
      7656      7655      7658      7661      7657      7655      7658      7659
      7657      7655      7658      7660      7657      7655      7658      7661
      7658      7661      7664      7665      7658      7661      7664      7666
      7658      7661      7664      7667      7659      7658      7661      7662
      7659      7658      7661      7663      7659      7658      7661      7664
      7660      7658      7661      7662      7660      7658      7661      7663
      7660      7658      7661      7664      7661      7664      7667      7668
      7661      7664      7667      7669      7661      7664      7667      7670
      7662      7661      7664      7665      7662      7661      7664      7666
      7662      7661      7664      7667      7663      7661      7664      7665
      7663      7661      7664      7666      7663      7661      7664      7667
      7664      7667      7670      7671      7664      7667      7670      7672
      7664      7667      7670      7673      7665      7664      7667      7668
      7665      7664      7667      7669      7665      7664      7667      7670
      7666      7664      7667      7668      7666      7664      7667      7669
      7666      7664      7667      7670      7668      7667      7670      7671
      7668      7667      7670      7672      7668      7667      7670      7673
      7669      7667      7670      7671      7669      7667      7670      7672
      7669      7667      7670      7673      7674      7678      7680      7681
      7674      7678      7680      7682      7674      7678      7683      7684
      7674      7678      7683      7685      7674      7678      7683      7689
      7675      7674      7678      7679      7675      7674      7678      7680
      7675      7674      7678      7683      7676      7674      7678      7679
      7676      7674      7678      7680      7676      7674      7678      7683
      7677      7674      7678      7679      7677      7674      7678      7680
      7677      7674      7678      7683      7678      7683      7689      7686
      7679      7678      7680      7681      7679      7678      7680      7682
      7679      7678      7683      7684      7679      7678      7683      7685
      7679      7678      7683      7689      7680      7678      7683      7684
      7680      7678      7683      7685      7680      7678      7683      7689
      7681      7680      7678      7683      7682      7680      7678      7683
      7683      7689      7686      7687      7683      7689      7686      7688
      7683      7689      7686      7690      7684      7683      7689      7686
      7685      7683      7689      7686      7686      7690      7691      7692
      7686      7690      7691      7693      7686      7690      7691      7694
      7687      7686      7690      7691      7688      7686      7690      7691
      7689      7686      7690      7691      7690      7691      7694      7695
      7690      7691      7694      7696      7690      7691      7694      7702
      7691      7694      7696      7697      7691      7694      7702      7703
      7691      7694      7702      7704      7691      7694      7702      7705
      7692      7691      7694      7695      7692      7691      7694      7696
      7692      7691      7694      7702      7693      7691      7694      7695
      7693      7691      7694      7696      7693      7691      7694      7702
      7694      7696      7697      7698      7694      7696      7697      7699
      7694      7702      7705      7706      7695      7694      7696      7697
      7695      7694      7702      7703      7695      7694      7702      7704
      7695      7694      7702      7705      7696      7694      7702      7703
      7696      7694      7702      7704      7696      7694      7702      7705
      7696      7697      7699      7700      7696      7697      7699      7701
      7696      7697      7699      7711      7697      7696      7694      7702
      7697      7699      7711      7712      7697      7699      7711      7713
      7697      7699      7711      7714      7698      7697      7699      7700
      7698      7697      7699      7701      7698      7697      7699      7711
      7699      7711      7714      7715      7699      7711      7714      7716
      7699      7711      7714      7717      7700      7699      7711      7712
      7700      7699      7711      7713      7700      7699      7711      7714
      7701      7699      7711      7712      7701      7699      7711      7713
      7701      7699      7711      7714      7702      7705      7706      7707
      7702      7705      7706      7708      7703      7702      7705      7706
      7704      7702      7705      7706      7705      7706      7708      7709
      7705      7706      7708      7710      7705      7706      7708      7758
      7706      7708      7758      7759      7706      7708      7758      7760
      7706      7708      7758      7761      7707      7706      7708      7709
      7707      7706      7708      7710      7707      7706      7708      7758
      7708      7758      7761      7762      7708      7758      7761      7763
      7708      7758      7761      7764      7709      7708      7758      7759
      7709      7708      7758      7760      7709      7708      7758      7761
      7710      7708      7758      7759      7710      7708      7758      7760
      7710      7708      7758      7761      7711      7714      7717      7718
      7711      7714      7717      7719      7711      7714      7717      7720
      7712      7711      7714      7715      7712      7711      7714      7716
      7712      7711      7714      7717      7713      7711      7714      7715
      7713      7711      7714      7716      7713      7711      7714      7717
      7714      7717      7720      7721      7714      7717      7720      7722
      7714      7717      7720      7723      7715      7714      7717      7718
      7715      7714      7717      7719      7715      7714      7717      7720
      7716      7714      7717      7718      7716      7714      7717      7719
      7716      7714      7717      7720      7717      7720      7723      7724
      7717      7720      7723      7725      7717      7720      7723      7726
      7718      7717      7720      7721      7718      7717      7720      7722
      7718      7717      7720      7723      7719      7717      7720      7721
      7719      7717      7720      7722      7719      7717      7720      7723
      7720      7723      7726      7727      7720      7723      7726      7728
      7720      7723      7726      7729      7721      7720      7723      7724
      7721      7720      7723      7725      7721      7720      7723      7726
      7722      7720      7723      7724      7722      7720      7723      7725
      7722      7720      7723      7726      7723      7726      7729      7730
      7723      7726      7729      7731      7724      7723      7726      7727
      7724      7723      7726      7728      7724      7723      7726      7729
      7725      7723      7726      7727      7725      7723      7726      7728
      7725      7723      7726      7729      7726      7729      7731      7732
      7726      7729      7731      7733      7727      7726      7729      7730
      7727      7726      7729      7731      7728      7726      7729      7730
      7728      7726      7729      7731      7729      7731      7733      7734
      7729      7731      7733      7735      7729      7731      7733      7736
      7730      7729      7731      7732      7730      7729      7731      7733
      7731      7733      7736      7737      7731      7733      7736      7738
      7731      7733      7736      7739      7732      7731      7733      7734
      7732      7731      7733      7735      7732      7731      7733      7736
      7733      7736      7739      7740      7733      7736      7739      7741
      7733      7736      7739      7742      7734      7733      7736      7737
      7734      7733      7736      7738      7734      7733      7736      7739
      7735      7733      7736      7737      7735      7733      7736      7738
      7735      7733      7736      7739      7736      7739      7742      7743
      7736      7739      7742      7744      7736      7739      7742      7745
      7737      7736      7739      7740      7737      7736      7739      7741
      7737      7736      7739      7742      7738      7736      7739      7740
      7738      7736      7739      7741      7738      7736      7739      7742
      7739      7742      7745      7746      7739      7742      7745      7747
      7739      7742      7745      7748      7740      7739      7742      7743
      7740      7739      7742      7744      7740      7739      7742      7745
      7741      7739      7742      7743      7741      7739      7742      7744
      7741      7739      7742      7745      7742      7745      7748      7749
      7742      7745      7748      7750      7742      7745      7748      7751
      7743      7742      7745      7746      7743      7742      7745      7747
      7743      7742      7745      7748      7744      7742      7745      7746
      7744      7742      7745      7747      7744      7742      7745      7748
      7745      7748      7751      7752      7745      7748      7751      7753
      7745      7748      7751      7754      7746      7745      7748      7749
      7746      7745      7748      7750      7746      7745      7748      7751
      7747      7745      7748      7749      7747      7745      7748      7750
      7747      7745      7748      7751      7748      7751      7754      7755
      7748      7751      7754      7756      7748      7751      7754      7757
      7749      7748      7751      7752      7749      7748      7751      7753
      7749      7748      7751      7754      7750      7748      7751      7752
      7750      7748      7751      7753      7750      7748      7751      7754
      7752      7751      7754      7755      7752      7751      7754      7756
      7752      7751      7754      7757      7753      7751      7754      7755
      7753      7751      7754      7756      7753      7751      7754      7757
      7758      7761      7764      7765      7758      7761      7764      7766
      7758      7761      7764      7767      7759      7758      7761      7762
      7759      7758      7761      7763      7759      7758      7761      7764
      7760      7758      7761      7762      7760      7758      7761      7763
      7760      7758      7761      7764      7761      7764      7767      7768
      7761      7764      7767      7769      7761      7764      7767      7770
      7762      7761      7764      7765      7762      7761      7764      7766
      7762      7761      7764      7767      7763      7761      7764      7765
      7763      7761      7764      7766      7763      7761      7764      7767
      7764      7767      7770      7771      7764      7767      7770      7772
      7764      7767      7770      7773      7765      7764      7767      7768
      7765      7764      7767      7769      7765      7764      7767      7770
      7766      7764      7767      7768      7766      7764      7767      7769
      7766      7764      7767      7770      7767      7770      7773      7774
      7767      7770      7773      7775      7767      7770      7773      7776
      7768      7767      7770      7771      7768      7767      7770      7772
      7768      7767      7770      7773      7769      7767      7770      7771
      7769      7767      7770      7772      7769      7767      7770      7773
      7770      7773      7776      7777      7770      7773      7776      7778
      7770      7773      7776      7779      7771      7770      7773      7774
      7771      7770      7773      7775      7771      7770      7773      7776
      7772      7770      7773      7774      7772      7770      7773      7775
      7772      7770      7773      7776      7773      7776      7779      7780
      7773      7776      7779      7781      7773      7776      7779      7782
      7774      7773      7776      7777      7774      7773      7776      7778
      7774      7773      7776      7779      7775      7773      7776      7777
      7775      7773      7776      7778      7775      7773      7776      7779
      7776      7779      7782      7783      7776      7779      7782      7784
      7776      7779      7782      7785      7777      7776      7779      7780
      7777      7776      7779      7781      7777      7776      7779      7782
      7778      7776      7779      7780      7778      7776      7779      7781
      7778      7776      7779      7782      7779      7782      7785      7786
      7779      7782      7785      7787      7779      7782      7785      7788
      7780      7779      7782      7783      7780      7779      7782      7784
      7780      7779      7782      7785      7781      7779      7782      7783
      7781      7779      7782      7784      7781      7779      7782      7785
      7782      7785      7788      7789      7782      7785      7788      7790
      7782      7785      7788      7791      7783      7782      7785      7786
      7783      7782      7785      7787      7783      7782      7785      7788
      7784      7782      7785      7786      7784      7782      7785      7787
      7784      7782      7785      7788      7785      7788      7791      7792
      7785      7788      7791      7793      7785      7788      7791      7794
      7786      7785      7788      7789      7786      7785      7788      7790
      7786      7785      7788      7791      7787      7785      7788      7789
      7787      7785      7788      7790      7787      7785      7788      7791
      7788      7791      7794      7795      7788      7791      7794      7796
      7788      7791      7794      7797      7789      7788      7791      7792
      7789      7788      7791      7793      7789      7788      7791      7794
      7790      7788      7791      7792      7790      7788      7791      7793
      7790      7788      7791      7794      7791      7794      7797      7798
      7791      7794      7797      7799      7791      7794      7797      7800
      7792      7791      7794      7795      7792      7791      7794      7796
      7792      7791      7794      7797      7793      7791      7794      7795
      7793      7791      7794      7796      7793      7791      7794      7797
      7795      7794      7797      7798      7795      7794      7797      7799
      7795      7794      7797      7800      7796      7794      7797      7798
      7796      7794      7797      7799      7796      7794      7797      7800
      7801      7802      7817      7818      7801      7802      7817      7819
      7801      7802      7817      7823      7802      7801      7805      7806
      7802      7801      7805      7807      7802      7801      7805      7808
      7802      7801      7809      7810      7802      7801      7809      7811
      7802      7801      7809      7812      7802      7801      7813      7814
      7802      7801      7813      7815      7802      7801      7813      7816
      7802      7817      7823      7820      7803      7802      7801      7805
      7803      7802      7801      7809      7803      7802      7801      7813
      7803      7802      7817      7818      7803      7802      7817      7819
      7803      7802      7817      7823      7804      7802      7801      7805
      7804      7802      7801      7809      7804      7802      7801      7813
      7804      7802      7817      7818      7804      7802      7817      7819
      7804      7802      7817      7823      7805      7801      7802      7817
      7805      7801      7809      7810      7805      7801      7809      7811
      7805      7801      7809      7812      7805      7801      7813      7814
      7805      7801      7813      7815      7805      7801      7813      7816
      7806      7805      7801      7809      7806      7805      7801      7813
      7807      7805      7801      7809      7807      7805      7801      7813
      7808      7805      7801      7809      7808      7805      7801      7813
      7809      7801      7802      7817      7809      7801      7813      7814
      7809      7801      7813      7815      7809      7801      7813      7816
      7810      7809      7801      7813      7811      7809      7801      7813
      7812      7809      7801      7813      7813      7801      7802      7817
      7817      7823      7820      7821      7817      7823      7820      7822
      7817      7823      7820      7824      7818      7817      7823      7820
      7819      7817      7823      7820      7820      7824      7825      7826
      7820      7824      7825      7827      7820      7824      7825      7828
      7821      7820      7824      7825      7822      7820      7824      7825
      7823      7820      7824      7825      7824      7825      7828      7829
      7824      7825      7828      7830      7824      7825      7828      7836
      7825      7828      7830      7831      7825      7828      7836      7837
      7825      7828      7836      7838      7825      7828      7836      7839
      7826      7825      7828      7829      7826      7825      7828      7830
      7826      7825      7828      7836      7827      7825      7828      7829
      7827      7825      7828      7830      7827      7825      7828      7836
      7828      7830      7831      7832      7828      7830      7831      7833
      7828      7836      7839      7840      7829      7828      7830      7831
      7829      7828      7836      7837      7829      7828      7836      7838
      7829      7828      7836      7839      7830      7828      7836      7837
      7830      7828      7836      7838      7830      7828      7836      7839
      7830      7831      7833      7834      7830      7831      7833      7835
      7830      7831      7833      7845      7831      7830      7828      7836
      7831      7833      7845      7846      7831      7833      7845      7847
      7831      7833      7845      7848      7832      7831      7833      7834
      7832      7831      7833      7835      7832      7831      7833      7845
      7833      7845      7848      7849      7833      7845      7848      7850
      7833      7845      7848      7851      7834      7833      7845      7846
      7834      7833      7845      7847      7834      7833      7845      7848
      7835      7833      7845      7846      7835      7833      7845      7847
      7835      7833      7845      7848      7836      7839      7840      7841
      7836      7839      7840      7842      7837      7836      7839      7840
      7838      7836      7839      7840      7839      7840      7842      7843
      7839      7840      7842      7844      7839      7840      7842      7892
      7840      7842      7892      7893      7840      7842      7892      7894
      7840      7842      7892      7895      7841      7840      7842      7843
      7841      7840      7842      7844      7841      7840      7842      7892
      7842      7892      7895      7896      7842      7892      7895      7897
      7842      7892      7895      7898      7843      7842      7892      7893
      7843      7842      7892      7894      7843      7842      7892      7895
      7844      7842      7892      7893      7844      7842      7892      7894
      7844      7842      7892      7895      7845      7848      7851      7852
      7845      7848      7851      7853      7845      7848      7851      7854
      7846      7845      7848      7849      7846      7845      7848      7850
      7846      7845      7848      7851      7847      7845      7848      7849
      7847      7845      7848      7850      7847      7845      7848      7851
      7848      7851      7854      7855      7848      7851      7854      7856
      7848      7851      7854      7857      7849      7848      7851      7852
      7849      7848      7851      7853      7849      7848      7851      7854
      7850      7848      7851      7852      7850      7848      7851      7853
      7850      7848      7851      7854      7851      7854      7857      7858
      7851      7854      7857      7859      7851      7854      7857      7860
      7852      7851      7854      7855      7852      7851      7854      7856
      7852      7851      7854      7857      7853      7851      7854      7855
      7853      7851      7854      7856      7853      7851      7854      7857
      7854      7857      7860      7861      7854      7857      7860      7862
      7854      7857      7860      7863      7855      7854      7857      7858
      7855      7854      7857      7859      7855      7854      7857      7860
      7856      7854      7857      7858      7856      7854      7857      7859
      7856      7854      7857      7860      7857      7860      7863      7864
      7857      7860      7863      7865      7858      7857      7860      7861
      7858      7857      7860      7862      7858      7857      7860      7863
      7859      7857      7860      7861      7859      7857      7860      7862
      7859      7857      7860      7863      7860      7863      7865      7866
      7860      7863      7865      7867      7861      7860      7863      7864
      7861      7860      7863      7865      7862      7860      7863      7864
      7862      7860      7863      7865      7863      7865      7867      7868
      7863      7865      7867      7869      7863      7865      7867      7870
      7864      7863      7865      7866      7864      7863      7865      7867
      7865      7867      7870      7871      7865      7867      7870      7872
      7865      7867      7870      7873      7866      7865      7867      7868
      7866      7865      7867      7869      7866      7865      7867      7870
      7867      7870      7873      7874      7867      7870      7873      7875
      7867      7870      7873      7876      7868      7867      7870      7871
      7868      7867      7870      7872      7868      7867      7870      7873
      7869      7867      7870      7871      7869      7867      7870      7872
      7869      7867      7870      7873      7870      7873      7876      7877
      7870      7873      7876      7878      7870      7873      7876      7879
      7871      7870      7873      7874      7871      7870      7873      7875
      7871      7870      7873      7876      7872      7870      7873      7874
      7872      7870      7873      7875      7872      7870      7873      7876
      7873      7876      7879      7880      7873      7876      7879      7881
      7873      7876      7879      7882      7874      7873      7876      7877
      7874      7873      7876      7878      7874      7873      7876      7879
      7875      7873      7876      7877      7875      7873      7876      7878
      7875      7873      7876      7879      7876      7879      7882      7883
      7876      7879      7882      7884      7876      7879      7882      7885
      7877      7876      7879      7880      7877      7876      7879      7881
      7877      7876      7879      7882      7878      7876      7879      7880
      7878      7876      7879      7881      7878      7876      7879      7882
      7879      7882      7885      7886      7879      7882      7885      7887
      7879      7882      7885      7888      7880      7879      7882      7883
      7880      7879      7882      7884      7880      7879      7882      7885
      7881      7879      7882      7883      7881      7879      7882      7884
      7881      7879      7882      7885      7882      7885      7888      7889
      7882      7885      7888      7890      7882      7885      7888      7891
      7883      7882      7885      7886      7883      7882      7885      7887
      7883      7882      7885      7888      7884      7882      7885      7886
      7884      7882      7885      7887      7884      7882      7885      7888
      7886      7885      7888      7889      7886      7885      7888      7890
      7886      7885      7888      7891      7887      7885      7888      7889
      7887      7885      7888      7890      7887      7885      7888      7891
      7892      7895      7898      7899      7892      7895      7898      7900
      7892      7895      7898      7901      7893      7892      7895      7896
      7893      7892      7895      7897      7893      7892      7895      7898
      7894      7892      7895      7896      7894      7892      7895      7897
      7894      7892      7895      7898      7895      7898      7901      7902
      7895      7898      7901      7903      7895      7898      7901      7904
      7896      7895      7898      7899      7896      7895      7898      7900
      7896      7895      7898      7901      7897      7895      7898      7899
      7897      7895      7898      7900      7897      7895      7898      7901
      7898      7901      7904      7905      7898      7901      7904      7906
      7898      7901      7904      7907      7899      7898      7901      7902
      7899      7898      7901      7903      7899      7898      7901      7904
      7900      7898      7901      7902      7900      7898      7901      7903
      7900      7898      7901      7904      7901      7904      7907      7908
      7901      7904      7907      7909      7901      7904      7907      7910
      7902      7901      7904      7905      7902      7901      7904      7906
      7902      7901      7904      7907      7903      7901      7904      7905
      7903      7901      7904      7906      7903      7901      7904      7907
      7904      7907      7910      7911      7904      7907      7910      7912
      7904      7907      7910      7913      7905      7904      7907      7908
      7905      7904      7907      7909      7905      7904      7907      7910
      7906      7904      7907      7908      7906      7904      7907      7909
      7906      7904      7907      7910      7907      7910      7913      7914
      7907      7910      7913      7915      7907      7910      7913      7916
      7908      7907      7910      7911      7908      7907      7910      7912
      7908      7907      7910      7913      7909      7907      7910      7911
      7909      7907      7910      7912      7909      7907      7910      7913
      7910      7913      7916      7917      7910      7913      7916      7918
      7910      7913      7916      7919      7911      7910      7913      7914
      7911      7910      7913      7915      7911      7910      7913      7916
      7912      7910      7913      7914      7912      7910      7913      7915
      7912      7910      7913      7916      7913      7916      7919      7920
      7913      7916      7919      7921      7913      7916      7919      7922
      7914      7913      7916      7917      7914      7913      7916      7918
      7914      7913      7916      7919      7915      7913      7916      7917
      7915      7913      7916      7918      7915      7913      7916      7919
      7916      7919      7922      7923      7916      7919      7922      7924
      7916      7919      7922      7925      7917      7916      7919      7920
      7917      7916      7919      7921      7917      7916      7919      7922
      7918      7916      7919      7920      7918      7916      7919      7921
      7918      7916      7919      7922      7919      7922      7925      7926
      7919      7922      7925      7927      7919      7922      7925      7928
      7920      7919      7922      7923      7920      7919      7922      7924
      7920      7919      7922      7925      7921      7919      7922      7923
      7921      7919      7922      7924      7921      7919      7922      7925
      7922      7925      7928      7929      7922      7925      7928      7930
      7922      7925      7928      7931      7923      7922      7925      7926
      7923      7922      7925      7927      7923      7922      7925      7928
      7924      7922      7925      7926      7924      7922      7925      7927
      7924      7922      7925      7928      7925      7928      7931      7932
      7925      7928      7931      7933      7925      7928      7931      7934
      7926      7925      7928      7929      7926      7925      7928      7930
      7926      7925      7928      7931      7927      7925      7928      7929
      7927      7925      7928      7930      7927      7925      7928      7931
      7929      7928      7931      7932      7929      7928      7931      7933
      7929      7928      7931      7934      7930      7928      7931      7932
      7930      7928      7931      7933      7930      7928      7931      7934
      7935      7936      7951      7952      7935      7936      7951      7953
      7935      7936      7951      7957      7936      7935      7939      7940
      7936      7935      7939      7941      7936      7935      7939      7942
      7936      7935      7943      7944      7936      7935      7943      7945
      7936      7935      7943      7946      7936      7935      7947      7948
      7936      7935      7947      7949      7936      7935      7947      7950
      7936      7951      7957      7954      7937      7936      7935      7939
      7937      7936      7935      7943      7937      7936      7935      7947
      7937      7936      7951      7952      7937      7936      7951      7953
      7937      7936      7951      7957      7938      7936      7935      7939
      7938      7936      7935      7943      7938      7936      7935      7947
      7938      7936      7951      7952      7938      7936      7951      7953
      7938      7936      7951      7957      7939      7935      7936      7951
      7939      7935      7943      7944      7939      7935      7943      7945
      7939      7935      7943      7946      7939      7935      7947      7948
      7939      7935      7947      7949      7939      7935      7947      7950
      7940      7939      7935      7943      7940      7939      7935      7947
      7941      7939      7935      7943      7941      7939      7935      7947
      7942      7939      7935      7943      7942      7939      7935      7947
      7943      7935      7936      7951      7943      7935      7947      7948
      7943      7935      7947      7949      7943      7935      7947      7950
      7944      7943      7935      7947      7945      7943      7935      7947
      7946      7943      7935      7947      7947      7935      7936      7951
      7951      7957      7954      7955      7951      7957      7954      7956
      7951      7957      7954      7958      7952      7951      7957      7954
      7953      7951      7957      7954      7954      7958      7959      7960
      7954      7958      7959      7961      7954      7958      7959      7962
      7955      7954      7958      7959      7956      7954      7958      7959
      7957      7954      7958      7959      7958      7959      7962      7963
      7958      7959      7962      7964      7958      7959      7962      7970
      7959      7962      7964      7965      7959      7962      7970      7971
      7959      7962      7970      7972      7959      7962      7970      7973
      7960      7959      7962      7963      7960      7959      7962      7964
      7960      7959      7962      7970      7961      7959      7962      7963
      7961      7959      7962      7964      7961      7959      7962      7970
      7962      7964      7965      7966      7962      7964      7965      7967
      7962      7970      7973      7974      7963      7962      7964      7965
      7963      7962      7970      7971      7963      7962      7970      7972
      7963      7962      7970      7973      7964      7962      7970      7971
      7964      7962      7970      7972      7964      7962      7970      7973
      7964      7965      7967      7968      7964      7965      7967      7969
      7964      7965      7967      7979      7965      7964      7962      7970
      7965      7967      7979      7980      7965      7967      7979      7981
      7965      7967      7979      7982      7966      7965      7967      7968
      7966      7965      7967      7969      7966      7965      7967      7979
      7967      7979      7982      7983      7967      7979      7982      7984
      7967      7979      7982      7985      7968      7967      7979      7980
      7968      7967      7979      7981      7968      7967      7979      7982
      7969      7967      7979      7980      7969      7967      7979      7981
      7969      7967      7979      7982      7970      7973      7974      7975
      7970      7973      7974      7976      7971      7970      7973      7974
      7972      7970      7973      7974      7973      7974      7976      7977
      7973      7974      7976      7978      7973      7974      7976      8026
      7974      7976      8026      8027      7974      7976      8026      8028
      7974      7976      8026      8029      7975      7974      7976      7977
      7975      7974      7976      7978      7975      7974      7976      8026
      7976      8026      8029      8030      7976      8026      8029      8031
      7976      8026      8029      8032      7977      7976      8026      8027
      7977      7976      8026      8028      7977      7976      8026      8029
      7978      7976      8026      8027      7978      7976      8026      8028
      7978      7976      8026      8029      7979      7982      7985      7986
      7979      7982      7985      7987      7979      7982      7985      7988
      7980      7979      7982      7983      7980      7979      7982      7984
      7980      7979      7982      7985      7981      7979      7982      7983
      7981      7979      7982      7984      7981      7979      7982      7985
      7982      7985      7988      7989      7982      7985      7988      7990
      7982      7985      7988      7991      7983      7982      7985      7986
      7983      7982      7985      7987      7983      7982      7985      7988
      7984      7982      7985      7986      7984      7982      7985      7987
      7984      7982      7985      7988      7985      7988      7991      7992
      7985      7988      7991      7993      7985      7988      7991      7994
      7986      7985      7988      7989      7986      7985      7988      7990
      7986      7985      7988      7991      7987      7985      7988      7989
      7987      7985      7988      7990      7987      7985      7988      7991
      7988      7991      7994      7995      7988      7991      7994      7996
      7988      7991      7994      7997      7989      7988      7991      7992
      7989      7988      7991      7993      7989      7988      7991      7994
      7990      7988      7991      7992      7990      7988      7991      7993
      7990      7988      7991      7994      7991      7994      7997      7998
      7991      7994      7997      7999      7992      7991      7994      7995
      7992      7991      7994      7996      7992      7991      7994      7997
      7993      7991      7994      7995      7993      7991      7994      7996
      7993      7991      7994      7997      7994      7997      7999      8000
      7994      7997      7999      8001      7995      7994      7997      7998
      7995      7994      7997      7999      7996      7994      7997      7998
      7996      7994      7997      7999      7997      7999      8001      8002
      7997      7999      8001      8003      7997      7999      8001      8004
      7998      7997      7999      8000      7998      7997      7999      8001
      7999      8001      8004      8005      7999      8001      8004      8006
      7999      8001      8004      8007      8000      7999      8001      8002
      8000      7999      8001      8003      8000      7999      8001      8004
      8001      8004      8007      8008      8001      8004      8007      8009
      8001      8004      8007      8010      8002      8001      8004      8005
      8002      8001      8004      8006      8002      8001      8004      8007
      8003      8001      8004      8005      8003      8001      8004      8006
      8003      8001      8004      8007      8004      8007      8010      8011
      8004      8007      8010      8012      8004      8007      8010      8013
      8005      8004      8007      8008      8005      8004      8007      8009
      8005      8004      8007      8010      8006      8004      8007      8008
      8006      8004      8007      8009      8006      8004      8007      8010
      8007      8010      8013      8014      8007      8010      8013      8015
      8007      8010      8013      8016      8008      8007      8010      8011
      8008      8007      8010      8012      8008      8007      8010      8013
      8009      8007      8010      8011      8009      8007      8010      8012
      8009      8007      8010      8013      8010      8013      8016      8017
      8010      8013      8016      8018      8010      8013      8016      8019
      8011      8010      8013      8014      8011      8010      8013      8015
      8011      8010      8013      8016      8012      8010      8013      8014
      8012      8010      8013      8015      8012      8010      8013      8016
      8013      8016      8019      8020      8013      8016      8019      8021
      8013      8016      8019      8022      8014      8013      8016      8017
      8014      8013      8016      8018      8014      8013      8016      8019
      8015      8013      8016      8017      8015      8013      8016      8018
      8015      8013      8016      8019      8016      8019      8022      8023
      8016      8019      8022      8024      8016      8019      8022      8025
      8017      8016      8019      8020      8017      8016      8019      8021
      8017      8016      8019      8022      8018      8016      8019      8020
      8018      8016      8019      8021      8018      8016      8019      8022
      8020      8019      8022      8023      8020      8019      8022      8024
      8020      8019      8022      8025      8021      8019      8022      8023
      8021      8019      8022      8024      8021      8019      8022      8025
      8026      8029      8032      8033      8026      8029      8032      8034
      8026      8029      8032      8035      8027      8026      8029      8030
      8027      8026      8029      8031      8027      8026      8029      8032
      8028      8026      8029      8030      8028      8026      8029      8031
      8028      8026      8029      8032      8029      8032      8035      8036
      8029      8032      8035      8037      8029      8032      8035      8038
      8030      8029      8032      8033      8030      8029      8032      8034
      8030      8029      8032      8035      8031      8029      8032      8033
      8031      8029      8032      8034      8031      8029      8032      8035
      8032      8035      8038      8039      8032      8035      8038      8040
      8032      8035      8038      8041      8033      8032      8035      8036
      8033      8032      8035      8037      8033      8032      8035      8038
      8034      8032      8035      8036      8034      8032      8035      8037
      8034      8032      8035      8038      8035      8038      8041      8042
      8035      8038      8041      8043      8035      8038      8041      8044
      8036      8035      8038      8039      8036      8035      8038      8040
      8036      8035      8038      8041      8037      8035      8038      8039
      8037      8035      8038      8040      8037      8035      8038      8041
      8038      8041      8044      8045      8038      8041      8044      8046
      8038      8041      8044      8047      8039      8038      8041      8042
      8039      8038      8041      8043      8039      8038      8041      8044
      8040      8038      8041      8042      8040      8038      8041      8043
      8040      8038      8041      8044      8041      8044      8047      8048
      8041      8044      8047      8049      8041      8044      8047      8050
      8042      8041      8044      8045      8042      8041      8044      8046
      8042      8041      8044      8047      8043      8041      8044      8045
      8043      8041      8044      8046      8043      8041      8044      8047
      8044      8047      8050      8051      8044      8047      8050      8052
      8044      8047      8050      8053      8045      8044      8047      8048
      8045      8044      8047      8049      8045      8044      8047      8050
      8046      8044      8047      8048      8046      8044      8047      8049
      8046      8044      8047      8050      8047      8050      8053      8054
      8047      8050      8053      8055      8047      8050      8053      8056
      8048      8047      8050      8051      8048      8047      8050      8052
      8048      8047      8050      8053      8049      8047      8050      8051
      8049      8047      8050      8052      8049      8047      8050      8053
      8050      8053      8056      8057      8050      8053      8056      8058
      8050      8053      8056      8059      8051      8050      8053      8054
      8051      8050      8053      8055      8051      8050      8053      8056
      8052      8050      8053      8054      8052      8050      8053      8055
      8052      8050      8053      8056      8053      8056      8059      8060
      8053      8056      8059      8061      8053      8056      8059      8062
      8054      8053      8056      8057      8054      8053      8056      8058
      8054      8053      8056      8059      8055      8053      8056      8057
      8055      8053      8056      8058      8055      8053      8056      8059
      8056      8059      8062      8063      8056      8059      8062      8064
      8056      8059      8062      8065      8057      8056      8059      8060
      8057      8056      8059      8061      8057      8056      8059      8062
      8058      8056      8059      8060      8058      8056      8059      8061
      8058      8056      8059      8062      8059      8062      8065      8066
      8059      8062      8065      8067      8059      8062      8065      8068
      8060      8059      8062      8063      8060      8059      8062      8064
      8060      8059      8062      8065      8061      8059      8062      8063
      8061      8059      8062      8064      8061      8059      8062      8065
      8063      8062      8065      8066      8063      8062      8065      8067
      8063      8062      8065      8068      8064      8062      8065      8066
      8064      8062      8065      8067      8064      8062      8065      8068
      8069      8070      8085      8086      8069      8070      8085      8087
      8069      8070      8085      8091      8070      8069      8073      8074
      8070      8069      8073      8075      8070      8069      8073      8076
      8070      8069      8077      8078      8070      8069      8077      8079
      8070      8069      8077      8080      8070      8069      8081      8082
      8070      8069      8081      8083      8070      8069      8081      8084
      8070      8085      8091      8088      8071      8070      8069      8073
      8071      8070      8069      8077      8071      8070      8069      8081
      8071      8070      8085      8086      8071      8070      8085      8087
      8071      8070      8085      8091      8072      8070      8069      8073
      8072      8070      8069      8077      8072      8070      8069      8081
      8072      8070      8085      8086      8072      8070      8085      8087
      8072      8070      8085      8091      8073      8069      8070      8085
      8073      8069      8077      8078      8073      8069      8077      8079
      8073      8069      8077      8080      8073      8069      8081      8082
      8073      8069      8081      8083      8073      8069      8081      8084
      8074      8073      8069      8077      8074      8073      8069      8081
      8075      8073      8069      8077      8075      8073      8069      8081
      8076      8073      8069      8077      8076      8073      8069      8081
      8077      8069      8070      8085      8077      8069      8081      8082
      8077      8069      8081      8083      8077      8069      8081      8084
      8078      8077      8069      8081      8079      8077      8069      8081
      8080      8077      8069      8081      8081      8069      8070      8085
      8085      8091      8088      8089      8085      8091      8088      8090
      8085      8091      8088      8092      8086      8085      8091      8088
      8087      8085      8091      8088      8088      8092      8093      8094
      8088      8092      8093      8095      8088      8092      8093      8096
      8089      8088      8092      8093      8090      8088      8092      8093
      8091      8088      8092      8093      8092      8093      8096      8097
      8092      8093      8096      8098      8092      8093      8096      8104
      8093      8096      8098      8099      8093      8096      8104      8105
      8093      8096      8104      8106      8093      8096      8104      8107
      8094      8093      8096      8097      8094      8093      8096      8098
      8094      8093      8096      8104      8095      8093      8096      8097
      8095      8093      8096      8098      8095      8093      8096      8104
      8096      8098      8099      8100      8096      8098      8099      8101
      8096      8104      8107      8108      8097      8096      8098      8099
      8097      8096      8104      8105      8097      8096      8104      8106
      8097      8096      8104      8107      8098      8096      8104      8105
      8098      8096      8104      8106      8098      8096      8104      8107
      8098      8099      8101      8102      8098      8099      8101      8103
      8098      8099      8101      8113      8099      8098      8096      8104
      8099      8101      8113      8114      8099      8101      8113      8115
      8099      8101      8113      8116      8100      8099      8101      8102
      8100      8099      8101      8103      8100      8099      8101      8113
      8101      8113      8116      8117      8101      8113      8116      8118
      8101      8113      8116      8119      8102      8101      8113      8114
      8102      8101      8113      8115      8102      8101      8113      8116
      8103      8101      8113      8114      8103      8101      8113      8115
      8103      8101      8113      8116      8104      8107      8108      8109
      8104      8107      8108      8110      8105      8104      8107      8108
      8106      8104      8107      8108      8107      8108      8110      8111
      8107      8108      8110      8112      8107      8108      8110      8160
      8108      8110      8160      8161      8108      8110      8160      8162
      8108      8110      8160      8163      8109      8108      8110      8111
      8109      8108      8110      8112      8109      8108      8110      8160
      8110      8160      8163      8164      8110      8160      8163      8165
      8110      8160      8163      8166      8111      8110      8160      8161
      8111      8110      8160      8162      8111      8110      8160      8163
      8112      8110      8160      8161      8112      8110      8160      8162
      8112      8110      8160      8163      8113      8116      8119      8120
      8113      8116      8119      8121      8113      8116      8119      8122
      8114      8113      8116      8117      8114      8113      8116      8118
      8114      8113      8116      8119      8115      8113      8116      8117
      8115      8113      8116      8118      8115      8113      8116      8119
      8116      8119      8122      8123      8116      8119      8122      8124
      8116      8119      8122      8125      8117      8116      8119      8120
      8117      8116      8119      8121      8117      8116      8119      8122
      8118      8116      8119      8120      8118      8116      8119      8121
      8118      8116      8119      8122      8119      8122      8125      8126
      8119      8122      8125      8127      8119      8122      8125      8128
      8120      8119      8122      8123      8120      8119      8122      8124
      8120      8119      8122      8125      8121      8119      8122      8123
      8121      8119      8122      8124      8121      8119      8122      8125
      8122      8125      8128      8129      8122      8125      8128      8130
      8122      8125      8128      8131      8123      8122      8125      8126
      8123      8122      8125      8127      8123      8122      8125      8128
      8124      8122      8125      8126      8124      8122      8125      8127
      8124      8122      8125      8128      8125      8128      8131      8132
      8125      8128      8131      8133      8126      8125      8128      8129
      8126      8125      8128      8130      8126      8125      8128      8131
      8127      8125      8128      8129      8127      8125      8128      8130
      8127      8125      8128      8131      8128      8131      8133      8134
      8128      8131      8133      8135      8129      8128      8131      8132
      8129      8128      8131      8133      8130      8128      8131      8132
      8130      8128      8131      8133      8131      8133      8135      8136
      8131      8133      8135      8137      8131      8133      8135      8138
      8132      8131      8133      8134      8132      8131      8133      8135
      8133      8135      8138      8139      8133      8135      8138      8140
      8133      8135      8138      8141      8134      8133      8135      8136
      8134      8133      8135      8137      8134      8133      8135      8138
      8135      8138      8141      8142      8135      8138      8141      8143
      8135      8138      8141      8144      8136      8135      8138      8139
      8136      8135      8138      8140      8136      8135      8138      8141
      8137      8135      8138      8139      8137      8135      8138      8140
      8137      8135      8138      8141      8138      8141      8144      8145
      8138      8141      8144      8146      8138      8141      8144      8147
      8139      8138      8141      8142      8139      8138      8141      8143
      8139      8138      8141      8144      8140      8138      8141      8142
      8140      8138      8141      8143      8140      8138      8141      8144
      8141      8144      8147      8148      8141      8144      8147      8149
      8141      8144      8147      8150      8142      8141      8144      8145
      8142      8141      8144      8146      8142      8141      8144      8147
      8143      8141      8144      8145      8143      8141      8144      8146
      8143      8141      8144      8147      8144      8147      8150      8151
      8144      8147      8150      8152      8144      8147      8150      8153
      8145      8144      8147      8148      8145      8144      8147      8149
      8145      8144      8147      8150      8146      8144      8147      8148
      8146      8144      8147      8149      8146      8144      8147      8150
      8147      8150      8153      8154      8147      8150      8153      8155
      8147      8150      8153      8156      8148      8147      8150      8151
      8148      8147      8150      8152      8148      8147      8150      8153
      8149      8147      8150      8151      8149      8147      8150      8152
      8149      8147      8150      8153      8150      8153      8156      8157
      8150      8153      8156      8158      8150      8153      8156      8159
      8151      8150      8153      8154      8151      8150      8153      8155
      8151      8150      8153      8156      8152      8150      8153      8154
      8152      8150      8153      8155      8152      8150      8153      8156
      8154      8153      8156      8157      8154      8153      8156      8158
      8154      8153      8156      8159      8155      8153      8156      8157
      8155      8153      8156      8158      8155      8153      8156      8159
      8160      8163      8166      8167      8160      8163      8166      8168
      8160      8163      8166      8169      8161      8160      8163      8164
      8161      8160      8163      8165      8161      8160      8163      8166
      8162      8160      8163      8164      8162      8160      8163      8165
      8162      8160      8163      8166      8163      8166      8169      8170
      8163      8166      8169      8171      8163      8166      8169      8172
      8164      8163      8166      8167      8164      8163      8166      8168
      8164      8163      8166      8169      8165      8163      8166      8167
      8165      8163      8166      8168      8165      8163      8166      8169
      8166      8169      8172      8173      8166      8169      8172      8174
      8166      8169      8172      8175      8167      8166      8169      8170
      8167      8166      8169      8171      8167      8166      8169      8172
      8168      8166      8169      8170      8168      8166      8169      8171
      8168      8166      8169      8172      8169      8172      8175      8176
      8169      8172      8175      8177      8169      8172      8175      8178
      8170      8169      8172      8173      8170      8169      8172      8174
      8170      8169      8172      8175      8171      8169      8172      8173
      8171      8169      8172      8174      8171      8169      8172      8175
      8172      8175      8178      8179      8172      8175      8178      8180
      8172      8175      8178      8181      8173      8172      8175      8176
      8173      8172      8175      8177      8173      8172      8175      8178
      8174      8172      8175      8176      8174      8172      8175      8177
      8174      8172      8175      8178      8175      8178      8181      8182
      8175      8178      8181      8183      8175      8178      8181      8184
      8176      8175      8178      8179      8176      8175      8178      8180
      8176      8175      8178      8181      8177      8175      8178      8179
      8177      8175      8178      8180      8177      8175      8178      8181
      8178      8181      8184      8185      8178      8181      8184      8186
      8178      8181      8184      8187      8179      8178      8181      8182
      8179      8178      8181      8183      8179      8178      8181      8184
      8180      8178      8181      8182      8180      8178      8181      8183
      8180      8178      8181      8184      8181      8184      8187      8188
      8181      8184      8187      8189      8181      8184      8187      8190
      8182      8181      8184      8185      8182      8181      8184      8186
      8182      8181      8184      8187      8183      8181      8184      8185
      8183      8181      8184      8186      8183      8181      8184      8187
      8184      8187      8190      8191      8184      8187      8190      8192
      8184      8187      8190      8193      8185      8184      8187      8188
      8185      8184      8187      8189      8185      8184      8187      8190
      8186      8184      8187      8188      8186      8184      8187      8189
      8186      8184      8187      8190      8187      8190      8193      8194
      8187      8190      8193      8195      8187      8190      8193      8196
      8188      8187      8190      8191      8188      8187      8190      8192
      8188      8187      8190      8193      8189      8187      8190      8191
      8189      8187      8190      8192      8189      8187      8190      8193
      8190      8193      8196      8197      8190      8193      8196      8198
      8190      8193      8196      8199      8191      8190      8193      8194
      8191      8190      8193      8195      8191      8190      8193      8196
      8192      8190      8193      8194      8192      8190      8193      8195
      8192      8190      8193      8196      8193      8196      8199      8200
      8193      8196      8199      8201      8193      8196      8199      8202
      8194      8193      8196      8197      8194      8193      8196      8198
      8194      8193      8196      8199      8195      8193      8196      8197
      8195      8193      8196      8198      8195      8193      8196      8199
      8197      8196      8199      8200      8197      8196      8199      8201
      8197      8196      8199      8202      8198      8196      8199      8200
      8198      8196      8199      8201      8198      8196      8199      8202
      8203      8204      8219      8220      8203      8204      8219      8221
      8203      8204      8219      8225      8204      8203      8207      8208
      8204      8203      8207      8209      8204      8203      8207      8210
      8204      8203      8211      8212      8204      8203      8211      8213
      8204      8203      8211      8214      8204      8203      8215      8216
      8204      8203      8215      8217      8204      8203      8215      8218
      8204      8219      8225      8222      8205      8204      8203      8207
      8205      8204      8203      8211      8205      8204      8203      8215
      8205      8204      8219      8220      8205      8204      8219      8221
      8205      8204      8219      8225      8206      8204      8203      8207
      8206      8204      8203      8211      8206      8204      8203      8215
      8206      8204      8219      8220      8206      8204      8219      8221
      8206      8204      8219      8225      8207      8203      8204      8219
      8207      8203      8211      8212      8207      8203      8211      8213
      8207      8203      8211      8214      8207      8203      8215      8216
      8207      8203      8215      8217      8207      8203      8215      8218
      8208      8207      8203      8211      8208      8207      8203      8215
      8209      8207      8203      8211      8209      8207      8203      8215
      8210      8207      8203      8211      8210      8207      8203      8215
      8211      8203      8204      8219      8211      8203      8215      8216
      8211      8203      8215      8217      8211      8203      8215      8218
      8212      8211      8203      8215      8213      8211      8203      8215
      8214      8211      8203      8215      8215      8203      8204      8219
      8219      8225      8222      8223      8219      8225      8222      8224
      8219      8225      8222      8226      8220      8219      8225      8222
      8221      8219      8225      8222      8222      8226      8227      8228
      8222      8226      8227      8229      8222      8226      8227      8230
      8223      8222      8226      8227      8224      8222      8226      8227
      8225      8222      8226      8227      8226      8227      8230      8231
      8226      8227      8230      8232      8226      8227      8230      8238
      8227      8230      8232      8233      8227      8230      8238      8239
      8227      8230      8238      8240      8227      8230      8238      8241
      8228      8227      8230      8231      8228      8227      8230      8232
      8228      8227      8230      8238      8229      8227      8230      8231
      8229      8227      8230      8232      8229      8227      8230      8238
      8230      8232      8233      8234      8230      8232      8233      8235
      8230      8238      8241      8242      8231      8230      8232      8233
      8231      8230      8238      8239      8231      8230      8238      8240
      8231      8230      8238      8241      8232      8230      8238      8239
      8232      8230      8238      8240      8232      8230      8238      8241
      8232      8233      8235      8236      8232      8233      8235      8237
      8232      8233      8235      8247      8233      8232      8230      8238
      8233      8235      8247      8248      8233      8235      8247      8249
      8233      8235      8247      8250      8234      8233      8235      8236
      8234      8233      8235      8237      8234      8233      8235      8247
      8235      8247      8250      8251      8235      8247      8250      8252
      8235      8247      8250      8253      8236      8235      8247      8248
      8236      8235      8247      8249      8236      8235      8247      8250
      8237      8235      8247      8248      8237      8235      8247      8249
      8237      8235      8247      8250      8238      8241      8242      8243
      8238      8241      8242      8244      8239      8238      8241      8242
      8240      8238      8241      8242      8241      8242      8244      8245
      8241      8242      8244      8246      8241      8242      8244      8294
      8242      8244      8294      8295      8242      8244      8294      8296
      8242      8244      8294      8297      8243      8242      8244      8245
      8243      8242      8244      8246      8243      8242      8244      8294
      8244      8294      8297      8298      8244      8294      8297      8299
      8244      8294      8297      8300      8245      8244      8294      8295
      8245      8244      8294      8296      8245      8244      8294      8297
      8246      8244      8294      8295      8246      8244      8294      8296
      8246      8244      8294      8297      8247      8250      8253      8254
      8247      8250      8253      8255      8247      8250      8253      8256
      8248      8247      8250      8251      8248      8247      8250      8252
      8248      8247      8250      8253      8249      8247      8250      8251
      8249      8247      8250      8252      8249      8247      8250      8253
      8250      8253      8256      8257      8250      8253      8256      8258
      8250      8253      8256      8259      8251      8250      8253      8254
      8251      8250      8253      8255      8251      8250      8253      8256
      8252      8250      8253      8254      8252      8250      8253      8255
      8252      8250      8253      8256      8253      8256      8259      8260
      8253      8256      8259      8261      8253      8256      8259      8262
      8254      8253      8256      8257      8254      8253      8256      8258
      8254      8253      8256      8259      8255      8253      8256      8257
      8255      8253      8256      8258      8255      8253      8256      8259
      8256      8259      8262      8263      8256      8259      8262      8264
      8256      8259      8262      8265      8257      8256      8259      8260
      8257      8256      8259      8261      8257      8256      8259      8262
      8258      8256      8259      8260      8258      8256      8259      8261
      8258      8256      8259      8262      8259      8262      8265      8266
      8259      8262      8265      8267      8260      8259      8262      8263
      8260      8259      8262      8264      8260      8259      8262      8265
      8261      8259      8262      8263      8261      8259      8262      8264
      8261      8259      8262      8265      8262      8265      8267      8268
      8262      8265      8267      8269      8263      8262      8265      8266
      8263      8262      8265      8267      8264      8262      8265      8266
      8264      8262      8265      8267      8265      8267      8269      8270
      8265      8267      8269      8271      8265      8267      8269      8272
      8266      8265      8267      8268      8266      8265      8267      8269
      8267      8269      8272      8273      8267      8269      8272      8274
      8267      8269      8272      8275      8268      8267      8269      8270
      8268      8267      8269      8271      8268      8267      8269      8272
      8269      8272      8275      8276      8269      8272      8275      8277
      8269      8272      8275      8278      8270      8269      8272      8273
      8270      8269      8272      8274      8270      8269      8272      8275
      8271      8269      8272      8273      8271      8269      8272      8274
      8271      8269      8272      8275      8272      8275      8278      8279
      8272      8275      8278      8280      8272      8275      8278      8281
      8273      8272      8275      8276      8273      8272      8275      8277
      8273      8272      8275      8278      8274      8272      8275      8276
      8274      8272      8275      8277      8274      8272      8275      8278
      8275      8278      8281      8282      8275      8278      8281      8283
      8275      8278      8281      8284      8276      8275      8278      8279
      8276      8275      8278      8280      8276      8275      8278      8281
      8277      8275      8278      8279      8277      8275      8278      8280
      8277      8275      8278      8281      8278      8281      8284      8285
      8278      8281      8284      8286      8278      8281      8284      8287
      8279      8278      8281      8282      8279      8278      8281      8283
      8279      8278      8281      8284      8280      8278      8281      8282
      8280      8278      8281      8283      8280      8278      8281      8284
      8281      8284      8287      8288      8281      8284      8287      8289
      8281      8284      8287      8290      8282      8281      8284      8285
      8282      8281      8284      8286      8282      8281      8284      8287
      8283      8281      8284      8285      8283      8281      8284      8286
      8283      8281      8284      8287      8284      8287      8290      8291
      8284      8287      8290      8292      8284      8287      8290      8293
      8285      8284      8287      8288      8285      8284      8287      8289
      8285      8284      8287      8290      8286      8284      8287      8288
      8286      8284      8287      8289      8286      8284      8287      8290
      8288      8287      8290      8291      8288      8287      8290      8292
      8288      8287      8290      8293      8289      8287      8290      8291
      8289      8287      8290      8292      8289      8287      8290      8293
      8294      8297      8300      8301      8294      8297      8300      8302
      8294      8297      8300      8303      8295      8294      8297      8298
      8295      8294      8297      8299      8295      8294      8297      8300
      8296      8294      8297      8298      8296      8294      8297      8299
      8296      8294      8297      8300      8297      8300      8303      8304
      8297      8300      8303      8305      8297      8300      8303      8306
      8298      8297      8300      8301      8298      8297      8300      8302
      8298      8297      8300      8303      8299      8297      8300      8301
      8299      8297      8300      8302      8299      8297      8300      8303
      8300      8303      8306      8307      8300      8303      8306      8308
      8300      8303      8306      8309      8301      8300      8303      8304
      8301      8300      8303      8305      8301      8300      8303      8306
      8302      8300      8303      8304      8302      8300      8303      8305
      8302      8300      8303      8306      8303      8306      8309      8310
      8303      8306      8309      8311      8303      8306      8309      8312
      8304      8303      8306      8307      8304      8303      8306      8308
      8304      8303      8306      8309      8305      8303      8306      8307
      8305      8303      8306      8308      8305      8303      8306      8309
      8306      8309      8312      8313      8306      8309      8312      8314
      8306      8309      8312      8315      8307      8306      8309      8310
      8307      8306      8309      8311      8307      8306      8309      8312
      8308      8306      8309      8310      8308      8306      8309      8311
      8308      8306      8309      8312      8309      8312      8315      8316
      8309      8312      8315      8317      8309      8312      8315      8318
      8310      8309      8312      8313      8310      8309      8312      8314
      8310      8309      8312      8315      8311      8309      8312      8313
      8311      8309      8312      8314      8311      8309      8312      8315
      8312      8315      8318      8319      8312      8315      8318      8320
      8312      8315      8318      8321      8313      8312      8315      8316
      8313      8312      8315      8317      8313      8312      8315      8318
      8314      8312      8315      8316      8314      8312      8315      8317
      8314      8312      8315      8318      8315      8318      8321      8322
      8315      8318      8321      8323      8315      8318      8321      8324
      8316      8315      8318      8319      8316      8315      8318      8320
      8316      8315      8318      8321      8317      8315      8318      8319
      8317      8315      8318      8320      8317      8315      8318      8321
      8318      8321      8324      8325      8318      8321      8324      8326
      8318      8321      8324      8327      8319      8318      8321      8322
      8319      8318      8321      8323      8319      8318      8321      8324
      8320      8318      8321      8322      8320      8318      8321      8323
      8320      8318      8321      8324      8321      8324      8327      8328
      8321      8324      8327      8329      8321      8324      8327      8330
      8322      8321      8324      8325      8322      8321      8324      8326
      8322      8321      8324      8327      8323      8321      8324      8325
      8323      8321      8324      8326      8323      8321      8324      8327
      8324      8327      8330      8331      8324      8327      8330      8332
      8324      8327      8330      8333      8325      8324      8327      8328
      8325      8324      8327      8329      8325      8324      8327      8330
      8326      8324      8327      8328      8326      8324      8327      8329
      8326      8324      8327      8330      8327      8330      8333      8334
      8327      8330      8333      8335      8327      8330      8333      8336
      8328      8327      8330      8331      8328      8327      8330      8332
      8328      8327      8330      8333      8329      8327      8330      8331
      8329      8327      8330      8332      8329      8327      8330      8333
      8331      8330      8333      8334      8331      8330      8333      8335
      8331      8330      8333      8336      8332      8330      8333      8334
      8332      8330      8333      8335      8332      8330      8333      8336
      8337      8338      8353      8354      8337      8338      8353      8355
      8337      8338      8353      8359      8338      8337      8341      8342
      8338      8337      8341      8343      8338      8337      8341      8344
      8338      8337      8345      8346      8338      8337      8345      8347
      8338      8337      8345      8348      8338      8337      8349      8350
      8338      8337      8349      8351      8338      8337      8349      8352
      8338      8353      8359      8356      8339      8338      8337      8341
      8339      8338      8337      8345      8339      8338      8337      8349
      8339      8338      8353      8354      8339      8338      8353      8355
      8339      8338      8353      8359      8340      8338      8337      8341
      8340      8338      8337      8345      8340      8338      8337      8349
      8340      8338      8353      8354      8340      8338      8353      8355
      8340      8338      8353      8359      8341      8337      8338      8353
      8341      8337      8345      8346      8341      8337      8345      8347
      8341      8337      8345      8348      8341      8337      8349      8350
      8341      8337      8349      8351      8341      8337      8349      8352
      8342      8341      8337      8345      8342      8341      8337      8349
      8343      8341      8337      8345      8343      8341      8337      8349
      8344      8341      8337      8345      8344      8341      8337      8349
      8345      8337      8338      8353      8345      8337      8349      8350
      8345      8337      8349      8351      8345      8337      8349      8352
      8346      8345      8337      8349      8347      8345      8337      8349
      8348      8345      8337      8349      8349      8337      8338      8353
      8353      8359      8356      8357      8353      8359      8356      8358
      8353      8359      8356      8360      8354      8353      8359      8356
      8355      8353      8359      8356      8356      8360      8361      8362
      8356      8360      8361      8363      8356      8360      8361      8364
      8357      8356      8360      8361      8358      8356      8360      8361
      8359      8356      8360      8361      8360      8361      8364      8365
      8360      8361      8364      8366      8360      8361      8364      8372
      8361      8364      8366      8367      8361      8364      8372      8373
      8361      8364      8372      8374      8361      8364      8372      8375
      8362      8361      8364      8365      8362      8361      8364      8366
      8362      8361      8364      8372      8363      8361      8364      8365
      8363      8361      8364      8366      8363      8361      8364      8372
      8364      8366      8367      8368      8364      8366      8367      8369
      8364      8372      8375      8376      8365      8364      8366      8367
      8365      8364      8372      8373      8365      8364      8372      8374
      8365      8364      8372      8375      8366      8364      8372      8373
      8366      8364      8372      8374      8366      8364      8372      8375
      8366      8367      8369      8370      8366      8367      8369      8371
      8366      8367      8369      8381      8367      8366      8364      8372
      8367      8369      8381      8382      8367      8369      8381      8383
      8367      8369      8381      8384      8368      8367      8369      8370
      8368      8367      8369      8371      8368      8367      8369      8381
      8369      8381      8384      8385      8369      8381      8384      8386
      8369      8381      8384      8387      8370      8369      8381      8382
      8370      8369      8381      8383      8370      8369      8381      8384
      8371      8369      8381      8382      8371      8369      8381      8383
      8371      8369      8381      8384      8372      8375      8376      8377
      8372      8375      8376      8378      8373      8372      8375      8376
      8374      8372      8375      8376      8375      8376      8378      8379
      8375      8376      8378      8380      8375      8376      8378      8428
      8376      8378      8428      8429      8376      8378      8428      8430
      8376      8378      8428      8431      8377      8376      8378      8379
      8377      8376      8378      8380      8377      8376      8378      8428
      8378      8428      8431      8432      8378      8428      8431      8433
      8378      8428      8431      8434      8379      8378      8428      8429
      8379      8378      8428      8430      8379      8378      8428      8431
      8380      8378      8428      8429      8380      8378      8428      8430
      8380      8378      8428      8431      8381      8384      8387      8388
      8381      8384      8387      8389      8381      8384      8387      8390
      8382      8381      8384      8385      8382      8381      8384      8386
      8382      8381      8384      8387      8383      8381      8384      8385
      8383      8381      8384      8386      8383      8381      8384      8387
      8384      8387      8390      8391      8384      8387      8390      8392
      8384      8387      8390      8393      8385      8384      8387      8388
      8385      8384      8387      8389      8385      8384      8387      8390
      8386      8384      8387      8388      8386      8384      8387      8389
      8386      8384      8387      8390      8387      8390      8393      8394
      8387      8390      8393      8395      8387      8390      8393      8396
      8388      8387      8390      8391      8388      8387      8390      8392
      8388      8387      8390      8393      8389      8387      8390      8391
      8389      8387      8390      8392      8389      8387      8390      8393
      8390      8393      8396      8397      8390      8393      8396      8398
      8390      8393      8396      8399      8391      8390      8393      8394
      8391      8390      8393      8395      8391      8390      8393      8396
      8392      8390      8393      8394      8392      8390      8393      8395
      8392      8390      8393      8396      8393      8396      8399      8400
      8393      8396      8399      8401      8394      8393      8396      8397
      8394      8393      8396      8398      8394      8393      8396      8399
      8395      8393      8396      8397      8395      8393      8396      8398
      8395      8393      8396      8399      8396      8399      8401      8402
      8396      8399      8401      8403      8397      8396      8399      8400
      8397      8396      8399      8401      8398      8396      8399      8400
      8398      8396      8399      8401      8399      8401      8403      8404
      8399      8401      8403      8405      8399      8401      8403      8406
      8400      8399      8401      8402      8400      8399      8401      8403
      8401      8403      8406      8407      8401      8403      8406      8408
      8401      8403      8406      8409      8402      8401      8403      8404
      8402      8401      8403      8405      8402      8401      8403      8406
      8403      8406      8409      8410      8403      8406      8409      8411
      8403      8406      8409      8412      8404      8403      8406      8407
      8404      8403      8406      8408      8404      8403      8406      8409
      8405      8403      8406      8407      8405      8403      8406      8408
      8405      8403      8406      8409      8406      8409      8412      8413
      8406      8409      8412      8414      8406      8409      8412      8415
      8407      8406      8409      8410      8407      8406      8409      8411
      8407      8406      8409      8412      8408      8406      8409      8410
      8408      8406      8409      8411      8408      8406      8409      8412
      8409      8412      8415      8416      8409      8412      8415      8417
      8409      8412      8415      8418      8410      8409      8412      8413
      8410      8409      8412      8414      8410      8409      8412      8415
      8411      8409      8412      8413      8411      8409      8412      8414
      8411      8409      8412      8415      8412      8415      8418      8419
      8412      8415      8418      8420      8412      8415      8418      8421
      8413      8412      8415      8416      8413      8412      8415      8417
      8413      8412      8415      8418      8414      8412      8415      8416
      8414      8412      8415      8417      8414      8412      8415      8418
      8415      8418      8421      8422      8415      8418      8421      8423
      8415      8418      8421      8424      8416      8415      8418      8419
      8416      8415      8418      8420      8416      8415      8418      8421
      8417      8415      8418      8419      8417      8415      8418      8420
      8417      8415      8418      8421      8418      8421      8424      8425
      8418      8421      8424      8426      8418      8421      8424      8427
      8419      8418      8421      8422      8419      8418      8421      8423
      8419      8418      8421      8424      8420      8418      8421      8422
      8420      8418      8421      8423      8420      8418      8421      8424
      8422      8421      8424      8425      8422      8421      8424      8426
      8422      8421      8424      8427      8423      8421      8424      8425
      8423      8421      8424      8426      8423      8421      8424      8427
      8428      8431      8434      8435      8428      8431      8434      8436
      8428      8431      8434      8437      8429      8428      8431      8432
      8429      8428      8431      8433      8429      8428      8431      8434
      8430      8428      8431      8432      8430      8428      8431      8433
      8430      8428      8431      8434      8431      8434      8437      8438
      8431      8434      8437      8439      8431      8434      8437      8440
      8432      8431      8434      8435      8432      8431      8434      8436
      8432      8431      8434      8437      8433      8431      8434      8435
      8433      8431      8434      8436      8433      8431      8434      8437
      8434      8437      8440      8441      8434      8437      8440      8442
      8434      8437      8440      8443      8435      8434      8437      8438
      8435      8434      8437      8439      8435      8434      8437      8440
      8436      8434      8437      8438      8436      8434      8437      8439
      8436      8434      8437      8440      8437      8440      8443      8444
      8437      8440      8443      8445      8437      8440      8443      8446
      8438      8437      8440      8441      8438      8437      8440      8442
      8438      8437      8440      8443      8439      8437      8440      8441
      8439      8437      8440      8442      8439      8437      8440      8443
      8440      8443      8446      8447      8440      8443      8446      8448
      8440      8443      8446      8449      8441      8440      8443      8444
      8441      8440      8443      8445      8441      8440      8443      8446
      8442      8440      8443      8444      8442      8440      8443      8445
      8442      8440      8443      8446      8443      8446      8449      8450
      8443      8446      8449      8451      8443      8446      8449      8452
      8444      8443      8446      8447      8444      8443      8446      8448
      8444      8443      8446      8449      8445      8443      8446      8447
      8445      8443      8446      8448      8445      8443      8446      8449
      8446      8449      8452      8453      8446      8449      8452      8454
      8446      8449      8452      8455      8447      8446      8449      8450
      8447      8446      8449      8451      8447      8446      8449      8452
      8448      8446      8449      8450      8448      8446      8449      8451
      8448      8446      8449      8452      8449      8452      8455      8456
      8449      8452      8455      8457      8449      8452      8455      8458
      8450      8449      8452      8453      8450      8449      8452      8454
      8450      8449      8452      8455      8451      8449      8452      8453
      8451      8449      8452      8454      8451      8449      8452      8455
      8452      8455      8458      8459      8452      8455      8458      8460
      8452      8455      8458      8461      8453      8452      8455      8456
      8453      8452      8455      8457      8453      8452      8455      8458
      8454      8452      8455      8456      8454      8452      8455      8457
      8454      8452      8455      8458      8455      8458      8461      8462
      8455      8458      8461      8463      8455      8458      8461      8464
      8456      8455      8458      8459      8456      8455      8458      8460
      8456      8455      8458      8461      8457      8455      8458      8459
      8457      8455      8458      8460      8457      8455      8458      8461
      8458      8461      8464      8465      8458      8461      8464      8466
      8458      8461      8464      8467      8459      8458      8461      8462
      8459      8458      8461      8463      8459      8458      8461      8464
      8460      8458      8461      8462      8460      8458      8461      8463
      8460      8458      8461      8464      8461      8464      8467      8468
      8461      8464      8467      8469      8461      8464      8467      8470
      8462      8461      8464      8465      8462      8461      8464      8466
      8462      8461      8464      8467      8463      8461      8464      8465
      8463      8461      8464      8466      8463      8461      8464      8467
      8465      8464      8467      8468      8465      8464      8467      8469
      8465      8464      8467      8470      8466      8464      8467      8468
      8466      8464      8467      8469      8466      8464      8467      8470
      8471      8475      8477      8478      8471      8475      8477      8479
      8471      8475      8480      8481      8471      8475      8480      8482
      8471      8475      8480      8486      8472      8471      8475      8476
      8472      8471      8475      8477      8472      8471      8475      8480
      8473      8471      8475      8476      8473      8471      8475      8477
      8473      8471      8475      8480      8474      8471      8475      8476
      8474      8471      8475      8477      8474      8471      8475      8480
      8475      8480      8486      8483      8476      8475      8477      8478
      8476      8475      8477      8479      8476      8475      8480      8481
      8476      8475      8480      8482      8476      8475      8480      8486
      8477      8475      8480      8481      8477      8475      8480      8482
      8477      8475      8480      8486      8478      8477      8475      8480
      8479      8477      8475      8480      8480      8486      8483      8484
      8480      8486      8483      8485      8480      8486      8483      8487
      8481      8480      8486      8483      8482      8480      8486      8483
      8483      8487      8488      8489      8483      8487      8488      8490
      8483      8487      8488      8491      8484      8483      8487      8488
      8485      8483      8487      8488      8486      8483      8487      8488
      8487      8488      8491      8492      8487      8488      8491      8493
      8487      8488      8491      8499      8488      8491      8493      8494
      8488      8491      8499      8500      8488      8491      8499      8501
      8488      8491      8499      8502      8489      8488      8491      8492
      8489      8488      8491      8493      8489      8488      8491      8499
      8490      8488      8491      8492      8490      8488      8491      8493
      8490      8488      8491      8499      8491      8493      8494      8495
      8491      8493      8494      8496      8491      8499      8502      8503
      8492      8491      8493      8494      8492      8491      8499      8500
      8492      8491      8499      8501      8492      8491      8499      8502
      8493      8491      8499      8500      8493      8491      8499      8501
      8493      8491      8499      8502      8493      8494      8496      8497
      8493      8494      8496      8498      8493      8494      8496      8508
      8494      8493      8491      8499      8494      8496      8508      8509
      8494      8496      8508      8510      8494      8496      8508      8511
      8495      8494      8496      8497      8495      8494      8496      8498
      8495      8494      8496      8508      8496      8508      8511      8512
      8496      8508      8511      8513      8496      8508      8511      8514
      8497      8496      8508      8509      8497      8496      8508      8510
      8497      8496      8508      8511      8498      8496      8508      8509
      8498      8496      8508      8510      8498      8496      8508      8511
      8499      8502      8503      8504      8499      8502      8503      8505
      8500      8499      8502      8503      8501      8499      8502      8503
      8502      8503      8505      8506      8502      8503      8505      8507
      8502      8503      8505      8555      8503      8505      8555      8556
      8503      8505      8555      8557      8503      8505      8555      8558
      8504      8503      8505      8506      8504      8503      8505      8507
      8504      8503      8505      8555      8505      8555      8558      8559
      8505      8555      8558      8560      8505      8555      8558      8561
      8506      8505      8555      8556      8506      8505      8555      8557
      8506      8505      8555      8558      8507      8505      8555      8556
      8507      8505      8555      8557      8507      8505      8555      8558
      8508      8511      8514      8515      8508      8511      8514      8516
      8508      8511      8514      8517      8509      8508      8511      8512
      8509      8508      8511      8513      8509      8508      8511      8514
      8510      8508      8511      8512      8510      8508      8511      8513
      8510      8508      8511      8514      8511      8514      8517      8518
      8511      8514      8517      8519      8511      8514      8517      8520
      8512      8511      8514      8515      8512      8511      8514      8516
      8512      8511      8514      8517      8513      8511      8514      8515
      8513      8511      8514      8516      8513      8511      8514      8517
      8514      8517      8520      8521      8514      8517      8520      8522
      8514      8517      8520      8523      8515      8514      8517      8518
      8515      8514      8517      8519      8515      8514      8517      8520
      8516      8514      8517      8518      8516      8514      8517      8519
      8516      8514      8517      8520      8517      8520      8523      8524
      8517      8520      8523      8525      8517      8520      8523      8526
      8518      8517      8520      8521      8518      8517      8520      8522
      8518      8517      8520      8523      8519      8517      8520      8521
      8519      8517      8520      8522      8519      8517      8520      8523
      8520      8523      8526      8527      8520      8523      8526      8528
      8521      8520      8523      8524      8521      8520      8523      8525
      8521      8520      8523      8526      8522      8520      8523      8524
      8522      8520      8523      8525      8522      8520      8523      8526
      8523      8526      8528      8529      8523      8526      8528      8530
      8524      8523      8526      8527      8524      8523      8526      8528
      8525      8523      8526      8527      8525      8523      8526      8528
      8526      8528      8530      8531      8526      8528      8530      8532
      8526      8528      8530      8533      8527      8526      8528      8529
      8527      8526      8528      8530      8528      8530      8533      8534
      8528      8530      8533      8535      8528      8530      8533      8536
      8529      8528      8530      8531      8529      8528      8530      8532
      8529      8528      8530      8533      8530      8533      8536      8537
      8530      8533      8536      8538      8530      8533      8536      8539
      8531      8530      8533      8534      8531      8530      8533      8535
      8531      8530      8533      8536      8532      8530      8533      8534
      8532      8530      8533      8535      8532      8530      8533      8536
      8533      8536      8539      8540      8533      8536      8539      8541
      8533      8536      8539      8542      8534      8533      8536      8537
      8534      8533      8536      8538      8534      8533      8536      8539
      8535      8533      8536      8537      8535      8533      8536      8538
      8535      8533      8536      8539      8536      8539      8542      8543
      8536      8539      8542      8544      8536      8539      8542      8545
      8537      8536      8539      8540      8537      8536      8539      8541
      8537      8536      8539      8542      8538      8536      8539      8540
      8538      8536      8539      8541      8538      8536      8539      8542
      8539      8542      8545      8546      8539      8542      8545      8547
      8539      8542      8545      8548      8540      8539      8542      8543
      8540      8539      8542      8544      8540      8539      8542      8545
      8541      8539      8542      8543      8541      8539      8542      8544
      8541      8539      8542      8545      8542      8545      8548      8549
      8542      8545      8548      8550      8542      8545      8548      8551
      8543      8542      8545      8546      8543      8542      8545      8547
      8543      8542      8545      8548      8544      8542      8545      8546
      8544      8542      8545      8547      8544      8542      8545      8548
      8545      8548      8551      8552      8545      8548      8551      8553
      8545      8548      8551      8554      8546      8545      8548      8549
      8546      8545      8548      8550      8546      8545      8548      8551
      8547      8545      8548      8549      8547      8545      8548      8550
      8547      8545      8548      8551      8549      8548      8551      8552
      8549      8548      8551      8553      8549      8548      8551      8554
      8550      8548      8551      8552      8550      8548      8551      8553
      8550      8548      8551      8554      8555      8558      8561      8562
      8555      8558      8561      8563      8555      8558      8561      8564
      8556      8555      8558      8559      8556      8555      8558      8560
      8556      8555      8558      8561      8557      8555      8558      8559
      8557      8555      8558      8560      8557      8555      8558      8561
      8558      8561      8564      8565      8558      8561      8564      8566
      8558      8561      8564      8567      8559      8558      8561      8562
      8559      8558      8561      8563      8559      8558      8561      8564
      8560      8558      8561      8562      8560      8558      8561      8563
      8560      8558      8561      8564      8561      8564      8567      8568
      8561      8564      8567      8569      8561      8564      8567      8570
      8562      8561      8564      8565      8562      8561      8564      8566
      8562      8561      8564      8567      8563      8561      8564      8565
      8563      8561      8564      8566      8563      8561      8564      8567
      8564      8567      8570      8571      8564      8567      8570      8572
      8564      8567      8570      8573      8565      8564      8567      8568
      8565      8564      8567      8569      8565      8564      8567      8570
      8566      8564      8567      8568      8566      8564      8567      8569
      8566      8564      8567      8570      8567      8570      8573      8574
      8567      8570      8573      8575      8567      8570      8573      8576
      8568      8567      8570      8571      8568      8567      8570      8572
      8568      8567      8570      8573      8569      8567      8570      8571
      8569      8567      8570      8572      8569      8567      8570      8573
      8570      8573      8576      8577      8570      8573      8576      8578
      8570      8573      8576      8579      8571      8570      8573      8574
      8571      8570      8573      8575      8571      8570      8573      8576
      8572      8570      8573      8574      8572      8570      8573      8575
      8572      8570      8573      8576      8573      8576      8579      8580
      8573      8576      8579      8581      8573      8576      8579      8582
      8574      8573      8576      8577      8574      8573      8576      8578
      8574      8573      8576      8579      8575      8573      8576      8577
      8575      8573      8576      8578      8575      8573      8576      8579
      8576      8579      8582      8583      8576      8579      8582      8584
      8576      8579      8582      8585      8577      8576      8579      8580
      8577      8576      8579      8581      8577      8576      8579      8582
      8578      8576      8579      8580      8578      8576      8579      8581
      8578      8576      8579      8582      8579      8582      8585      8586
      8579      8582      8585      8587      8579      8582      8585      8588
      8580      8579      8582      8583      8580      8579      8582      8584
      8580      8579      8582      8585      8581      8579      8582      8583
      8581      8579      8582      8584      8581      8579      8582      8585
      8582      8585      8588      8589      8582      8585      8588      8590
      8582      8585      8588      8591      8583      8582      8585      8586
      8583      8582      8585      8587      8583      8582      8585      8588
      8584      8582      8585      8586      8584      8582      8585      8587
      8584      8582      8585      8588      8585      8588      8591      8592
      8585      8588      8591      8593      8585      8588      8591      8594
      8586      8585      8588      8589      8586      8585      8588      8590
      8586      8585      8588      8591      8587      8585      8588      8589
      8587      8585      8588      8590      8587      8585      8588      8591
      8588      8591      8594      8595      8588      8591      8594      8596
      8588      8591      8594      8597      8589      8588      8591      8592
      8589      8588      8591      8593      8589      8588      8591      8594
      8590      8588      8591      8592      8590      8588      8591      8593
      8590      8588      8591      8594      8592      8591      8594      8595
      8592      8591      8594      8596      8592      8591      8594      8597
      8593      8591      8594      8595      8593      8591      8594      8596
      8593      8591      8594      8597      8598      8599      8614      8615
      8598      8599      8614      8616      8598      8599      8614      8620
      8599      8598      8602      8603      8599      8598      8602      8604
      8599      8598      8602      8605      8599      8598      8606      8607
      8599      8598      8606      8608      8599      8598      8606      8609
      8599      8598      8610      8611      8599      8598      8610      8612
      8599      8598      8610      8613      8599      8614      8620      8617
      8600      8599      8598      8602      8600      8599      8598      8606
      8600      8599      8598      8610      8600      8599      8614      8615
      8600      8599      8614      8616      8600      8599      8614      8620
      8601      8599      8598      8602      8601      8599      8598      8606
      8601      8599      8598      8610      8601      8599      8614      8615
      8601      8599      8614      8616      8601      8599      8614      8620
      8602      8598      8599      8614      8602      8598      8606      8607
      8602      8598      8606      8608      8602      8598      8606      8609
      8602      8598      8610      8611      8602      8598      8610      8612
      8602      8598      8610      8613      8603      8602      8598      8606
      8603      8602      8598      8610      8604      8602      8598      8606
      8604      8602      8598      8610      8605      8602      8598      8606
      8605      8602      8598      8610      8606      8598      8599      8614
      8606      8598      8610      8611      8606      8598      8610      8612
      8606      8598      8610      8613      8607      8606      8598      8610
      8608      8606      8598      8610      8609      8606      8598      8610
      8610      8598      8599      8614      8614      8620      8617      8618
      8614      8620      8617      8619      8614      8620      8617      8621
      8615      8614      8620      8617      8616      8614      8620      8617
      8617      8621      8622      8623      8617      8621      8622      8624
      8617      8621      8622      8625      8618      8617      8621      8622
      8619      8617      8621      8622      8620      8617      8621      8622
      8621      8622      8625      8626      8621      8622      8625      8627
      8621      8622      8625      8633      8622      8625      8627      8628
      8622      8625      8633      8634      8622      8625      8633      8635
      8622      8625      8633      8636      8623      8622      8625      8626
      8623      8622      8625      8627      8623      8622      8625      8633
      8624      8622      8625      8626      8624      8622      8625      8627
      8624      8622      8625      8633      8625      8627      8628      8629
      8625      8627      8628      8630      8625      8633      8636      8637
      8626      8625      8627      8628      8626      8625      8633      8634
      8626      8625      8633      8635      8626      8625      8633      8636
      8627      8625      8633      8634      8627      8625      8633      8635
      8627      8625      8633      8636      8627      8628      8630      8631
      8627      8628      8630      8632      8627      8628      8630      8642
      8628      8627      8625      8633      8628      8630      8642      8643
      8628      8630      8642      8644      8628      8630      8642      8645
      8629      8628      8630      8631      8629      8628      8630      8632
      8629      8628      8630      8642      8630      8642      8645      8646
      8630      8642      8645      8647      8630      8642      8645      8648
      8631      8630      8642      8643      8631      8630      8642      8644
      8631      8630      8642      8645      8632      8630      8642      8643
      8632      8630      8642      8644      8632      8630      8642      8645
      8633      8636      8637      8638      8633      8636      8637      8639
      8634      8633      8636      8637      8635      8633      8636      8637
      8636      8637      8639      8640      8636      8637      8639      8641
      8636      8637      8639      8689      8637      8639      8689      8690
      8637      8639      8689      8691      8637      8639      8689      8692
      8638      8637      8639      8640      8638      8637      8639      8641
      8638      8637      8639      8689      8639      8689      8692      8693
      8639      8689      8692      8694      8639      8689      8692      8695
      8640      8639      8689      8690      8640      8639      8689      8691
      8640      8639      8689      8692      8641      8639      8689      8690
      8641      8639      8689      8691      8641      8639      8689      8692
      8642      8645      8648      8649      8642      8645      8648      8650
      8642      8645      8648      8651      8643      8642      8645      8646
      8643      8642      8645      8647      8643      8642      8645      8648
      8644      8642      8645      8646      8644      8642      8645      8647
      8644      8642      8645      8648      8645      8648      8651      8652
      8645      8648      8651      8653      8645      8648      8651      8654
      8646      8645      8648      8649      8646      8645      8648      8650
      8646      8645      8648      8651      8647      8645      8648      8649
      8647      8645      8648      8650      8647      8645      8648      8651
      8648      8651      8654      8655      8648      8651      8654      8656
      8648      8651      8654      8657      8649      8648      8651      8652
      8649      8648      8651      8653      8649      8648      8651      8654
      8650      8648      8651      8652      8650      8648      8651      8653
      8650      8648      8651      8654      8651      8654      8657      8658
      8651      8654      8657      8659      8651      8654      8657      8660
      8652      8651      8654      8655      8652      8651      8654      8656
      8652      8651      8654      8657      8653      8651      8654      8655
      8653      8651      8654      8656      8653      8651      8654      8657
      8654      8657      8660      8661      8654      8657      8660      8662
      8655      8654      8657      8658      8655      8654      8657      8659
      8655      8654      8657      8660      8656      8654      8657      8658
      8656      8654      8657      8659      8656      8654      8657      8660
      8657      8660      8662      8663      8657      8660      8662      8664
      8658      8657      8660      8661      8658      8657      8660      8662
      8659      8657      8660      8661      8659      8657      8660      8662
      8660      8662      8664      8665      8660      8662      8664      8666
      8660      8662      8664      8667      8661      8660      8662      8663
      8661      8660      8662      8664      8662      8664      8667      8668
      8662      8664      8667      8669      8662      8664      8667      8670
      8663      8662      8664      8665      8663      8662      8664      8666
      8663      8662      8664      8667      8664      8667      8670      8671
      8664      8667      8670      8672      8664      8667      8670      8673
      8665      8664      8667      8668      8665      8664      8667      8669
      8665      8664      8667      8670      8666      8664      8667      8668
      8666      8664      8667      8669      8666      8664      8667      8670
      8667      8670      8673      8674      8667      8670      8673      8675
      8667      8670      8673      8676      8668      8667      8670      8671
      8668      8667      8670      8672      8668      8667      8670      8673
      8669      8667      8670      8671      8669      8667      8670      8672
      8669      8667      8670      8673      8670      8673      8676      8677
      8670      8673      8676      8678      8670      8673      8676      8679
      8671      8670      8673      8674      8671      8670      8673      8675
      8671      8670      8673      8676      8672      8670      8673      8674
      8672      8670      8673      8675      8672      8670      8673      8676
      8673      8676      8679      8680      8673      8676      8679      8681
      8673      8676      8679      8682      8674      8673      8676      8677
      8674      8673      8676      8678      8674      8673      8676      8679
      8675      8673      8676      8677      8675      8673      8676      8678
      8675      8673      8676      8679      8676      8679      8682      8683
      8676      8679      8682      8684      8676      8679      8682      8685
      8677      8676      8679      8680      8677      8676      8679      8681
      8677      8676      8679      8682      8678      8676      8679      8680
      8678      8676      8679      8681      8678      8676      8679      8682
      8679      8682      8685      8686      8679      8682      8685      8687
      8679      8682      8685      8688      8680      8679      8682      8683
      8680      8679      8682      8684      8680      8679      8682      8685
      8681      8679      8682      8683      8681      8679      8682      8684
      8681      8679      8682      8685      8683      8682      8685      8686
      8683      8682      8685      8687      8683      8682      8685      8688
      8684      8682      8685      8686      8684      8682      8685      8687
      8684      8682      8685      8688      8689      8692      8695      8696
      8689      8692      8695      8697      8689      8692      8695      8698
      8690      8689      8692      8693      8690      8689      8692      8694
      8690      8689      8692      8695      8691      8689      8692      8693
      8691      8689      8692      8694      8691      8689      8692      8695
      8692      8695      8698      8699      8692      8695      8698      8700
      8692      8695      8698      8701      8693      8692      8695      8696
      8693      8692      8695      8697      8693      8692      8695      8698
      8694      8692      8695      8696      8694      8692      8695      8697
      8694      8692      8695      8698      8695      8698      8701      8702
      8695      8698      8701      8703      8695      8698      8701      8704
      8696      8695      8698      8699      8696      8695      8698      8700
      8696      8695      8698      8701      8697      8695      8698      8699
      8697      8695      8698      8700      8697      8695      8698      8701
      8698      8701      8704      8705      8698      8701      8704      8706
      8698      8701      8704      8707      8699      8698      8701      8702
      8699      8698      8701      8703      8699      8698      8701      8704
      8700      8698      8701      8702      8700      8698      8701      8703
      8700      8698      8701      8704      8701      8704      8707      8708
      8701      8704      8707      8709      8701      8704      8707      8710
      8702      8701      8704      8705      8702      8701      8704      8706
      8702      8701      8704      8707      8703      8701      8704      8705
      8703      8701      8704      8706      8703      8701      8704      8707
      8704      8707      8710      8711      8704      8707      8710      8712
      8704      8707      8710      8713      8705      8704      8707      8708
      8705      8704      8707      8709      8705      8704      8707      8710
      8706      8704      8707      8708      8706      8704      8707      8709
      8706      8704      8707      8710      8707      8710      8713      8714
      8707      8710      8713      8715      8707      8710      8713      8716
      8708      8707      8710      8711      8708      8707      8710      8712
      8708      8707      8710      8713      8709      8707      8710      8711
      8709      8707      8710      8712      8709      8707      8710      8713
      8710      8713      8716      8717      8710      8713      8716      8718
      8710      8713      8716      8719      8711      8710      8713      8714
      8711      8710      8713      8715      8711      8710      8713      8716
      8712      8710      8713      8714      8712      8710      8713      8715
      8712      8710      8713      8716      8713      8716      8719      8720
      8713      8716      8719      8721      8713      8716      8719      8722
      8714      8713      8716      8717      8714      8713      8716      8718
      8714      8713      8716      8719      8715      8713      8716      8717
      8715      8713      8716      8718      8715      8713      8716      8719
      8716      8719      8722      8723      8716      8719      8722      8724
      8716      8719      8722      8725      8717      8716      8719      8720
      8717      8716      8719      8721      8717      8716      8719      8722
      8718      8716      8719      8720      8718      8716      8719      8721
      8718      8716      8719      8722      8719      8722      8725      8726
      8719      8722      8725      8727      8719      8722      8725      8728
      8720      8719      8722      8723      8720      8719      8722      8724
      8720      8719      8722      8725      8721      8719      8722      8723
      8721      8719      8722      8724      8721      8719      8722      8725
      8722      8725      8728      8729      8722      8725      8728      8730
      8722      8725      8728      8731      8723      8722      8725      8726
      8723      8722      8725      8727      8723      8722      8725      8728
      8724      8722      8725      8726      8724      8722      8725      8727
      8724      8722      8725      8728      8726      8725      8728      8729
      8726      8725      8728      8730      8726      8725      8728      8731
      8727      8725      8728      8729      8727      8725      8728      8730
      8727      8725      8728      8731      8732      8733      8748      8749
      8732      8733      8748      8750      8732      8733      8748      8754
      8733      8732      8736      8737      8733      8732      8736      8738
      8733      8732      8736      8739      8733      8732      8740      8741
      8733      8732      8740      8742      8733      8732      8740      8743
      8733      8732      8744      8745      8733      8732      8744      8746
      8733      8732      8744      8747      8733      8748      8754      8751
      8734      8733      8732      8736      8734      8733      8732      8740
      8734      8733      8732      8744      8734      8733      8748      8749
      8734      8733      8748      8750      8734      8733      8748      8754
      8735      8733      8732      8736      8735      8733      8732      8740
      8735      8733      8732      8744      8735      8733      8748      8749
      8735      8733      8748      8750      8735      8733      8748      8754
      8736      8732      8733      8748      8736      8732      8740      8741
      8736      8732      8740      8742      8736      8732      8740      8743
      8736      8732      8744      8745      8736      8732      8744      8746
      8736      8732      8744      8747      8737      8736      8732      8740
      8737      8736      8732      8744      8738      8736      8732      8740
      8738      8736      8732      8744      8739      8736      8732      8740
      8739      8736      8732      8744      8740      8732      8733      8748
      8740      8732      8744      8745      8740      8732      8744      8746
      8740      8732      8744      8747      8741      8740      8732      8744
      8742      8740      8732      8744      8743      8740      8732      8744
      8744      8732      8733      8748      8748      8754      8751      8752
      8748      8754      8751      8753      8748      8754      8751      8755
      8749      8748      8754      8751      8750      8748      8754      8751
      8751      8755      8756      8757      8751      8755      8756      8758
      8751      8755      8756      8759      8752      8751      8755      8756
      8753      8751      8755      8756      8754      8751      8755      8756
      8755      8756      8759      8760      8755      8756      8759      8761
      8755      8756      8759      8767      8756      8759      8761      8762
      8756      8759      8767      8768      8756      8759      8767      8769
      8756      8759      8767      8770      8757      8756      8759      8760
      8757      8756      8759      8761      8757      8756      8759      8767
      8758      8756      8759      8760      8758      8756      8759      8761
      8758      8756      8759      8767      8759      8761      8762      8763
      8759      8761      8762      8764      8759      8767      8770      8771
      8760      8759      8761      8762      8760      8759      8767      8768
      8760      8759      8767      8769      8760      8759      8767      8770
      8761      8759      8767      8768      8761      8759      8767      8769
      8761      8759      8767      8770      8761      8762      8764      8765
      8761      8762      8764      8766      8761      8762      8764      8776
      8762      8761      8759      8767      8762      8764      8776      8777
      8762      8764      8776      8778      8762      8764      8776      8779
      8763      8762      8764      8765      8763      8762      8764      8766
      8763      8762      8764      8776      8764      8776      8779      8780
      8764      8776      8779      8781      8764      8776      8779      8782
      8765      8764      8776      8777      8765      8764      8776      8778
      8765      8764      8776      8779      8766      8764      8776      8777
      8766      8764      8776      8778      8766      8764      8776      8779
      8767      8770      8771      8772      8767      8770      8771      8773
      8768      8767      8770      8771      8769      8767      8770      8771
      8770      8771      8773      8774      8770      8771      8773      8775
      8770      8771      8773      8823      8771      8773      8823      8824
      8771      8773      8823      8825      8771      8773      8823      8826
      8772      8771      8773      8774      8772      8771      8773      8775
      8772      8771      8773      8823      8773      8823      8826      8827
      8773      8823      8826      8828      8773      8823      8826      8829
      8774      8773      8823      8824      8774      8773      8823      8825
      8774      8773      8823      8826      8775      8773      8823      8824
      8775      8773      8823      8825      8775      8773      8823      8826
      8776      8779      8782      8783      8776      8779      8782      8784
      8776      8779      8782      8785      8777      8776      8779      8780
      8777      8776      8779      8781      8777      8776      8779      8782
      8778      8776      8779      8780      8778      8776      8779      8781
      8778      8776      8779      8782      8779      8782      8785      8786
      8779      8782      8785      8787      8779      8782      8785      8788
      8780      8779      8782      8783      8780      8779      8782      8784
      8780      8779      8782      8785      8781      8779      8782      8783
      8781      8779      8782      8784      8781      8779      8782      8785
      8782      8785      8788      8789      8782      8785      8788      8790
      8782      8785      8788      8791      8783      8782      8785      8786
      8783      8782      8785      8787      8783      8782      8785      8788
      8784      8782      8785      8786      8784      8782      8785      8787
      8784      8782      8785      8788      8785      8788      8791      8792
      8785      8788      8791      8793      8785      8788      8791      8794
      8786      8785      8788      8789      8786      8785      8788      8790
      8786      8785      8788      8791      8787      8785      8788      8789
      8787      8785      8788      8790      8787      8785      8788      8791
      8788      8791      8794      8795      8788      8791      8794      8796
      8789      8788      8791      8792      8789      8788      8791      8793
      8789      8788      8791      8794      8790      8788      8791      8792
      8790      8788      8791      8793      8790      8788      8791      8794
      8791      8794      8796      8797      8791      8794      8796      8798
      8792      8791      8794      8795      8792      8791      8794      8796
      8793      8791      8794      8795      8793      8791      8794      8796
      8794      8796      8798      8799      8794      8796      8798      8800
      8794      8796      8798      8801      8795      8794      8796      8797
      8795      8794      8796      8798      8796      8798      8801      8802
      8796      8798      8801      8803      8796      8798      8801      8804
      8797      8796      8798      8799      8797      8796      8798      8800
      8797      8796      8798      8801      8798      8801      8804      8805
      8798      8801      8804      8806      8798      8801      8804      8807
      8799      8798      8801      8802      8799      8798      8801      8803
      8799      8798      8801      8804      8800      8798      8801      8802
      8800      8798      8801      8803      8800      8798      8801      8804
      8801      8804      8807      8808      8801      8804      8807      8809
      8801      8804      8807      8810      8802      8801      8804      8805
      8802      8801      8804      8806      8802      8801      8804      8807
      8803      8801      8804      8805      8803      8801      8804      8806
      8803      8801      8804      8807      8804      8807      8810      8811
      8804      8807      8810      8812      8804      8807      8810      8813
      8805      8804      8807      8808      8805      8804      8807      8809
      8805      8804      8807      8810      8806      8804      8807      8808
      8806      8804      8807      8809      8806      8804      8807      8810
      8807      8810      8813      8814      8807      8810      8813      8815
      8807      8810      8813      8816      8808      8807      8810      8811
      8808      8807      8810      8812      8808      8807      8810      8813
      8809      8807      8810      8811      8809      8807      8810      8812
      8809      8807      8810      8813      8810      8813      8816      8817
      8810      8813      8816      8818      8810      8813      8816      8819
      8811      8810      8813      8814      8811      8810      8813      8815
      8811      8810      8813      8816      8812      8810      8813      8814
      8812      8810      8813      8815      8812      8810      8813      8816
      8813      8816      8819      8820      8813      8816      8819      8821
      8813      8816      8819      8822      8814      8813      8816      8817
      8814      8813      8816      8818      8814      8813      8816      8819
      8815      8813      8816      8817      8815      8813      8816      8818
      8815      8813      8816      8819      8817      8816      8819      8820
      8817      8816      8819      8821      8817      8816      8819      8822
      8818      8816      8819      8820      8818      8816      8819      8821
      8818      8816      8819      8822      8823      8826      8829      8830
      8823      8826      8829      8831      8823      8826      8829      8832
      8824      8823      8826      8827      8824      8823      8826      8828
      8824      8823      8826      8829      8825      8823      8826      8827
      8825      8823      8826      8828      8825      8823      8826      8829
      8826      8829      8832      8833      8826      8829      8832      8834
      8826      8829      8832      8835      8827      8826      8829      8830
      8827      8826      8829      8831      8827      8826      8829      8832
      8828      8826      8829      8830      8828      8826      8829      8831
      8828      8826      8829      8832      8829      8832      8835      8836
      8829      8832      8835      8837      8829      8832      8835      8838
      8830      8829      8832      8833      8830      8829      8832      8834
      8830      8829      8832      8835      8831      8829      8832      8833
      8831      8829      8832      8834      8831      8829      8832      8835
      8832      8835      8838      8839      8832      8835      8838      8840
      8832      8835      8838      8841      8833      8832      8835      8836
      8833      8832      8835      8837      8833      8832      8835      8838
      8834      8832      8835      8836      8834      8832      8835      8837
      8834      8832      8835      8838      8835      8838      8841      8842
      8835      8838      8841      8843      8835      8838      8841      8844
      8836      8835      8838      8839      8836      8835      8838      8840
      8836      8835      8838      8841      8837      8835      8838      8839
      8837      8835      8838      8840      8837      8835      8838      8841
      8838      8841      8844      8845      8838      8841      8844      8846
      8838      8841      8844      8847      8839      8838      8841      8842
      8839      8838      8841      8843      8839      8838      8841      8844
      8840      8838      8841      8842      8840      8838      8841      8843
      8840      8838      8841      8844      8841      8844      8847      8848
      8841      8844      8847      8849      8841      8844      8847      8850
      8842      8841      8844      8845      8842      8841      8844      8846
      8842      8841      8844      8847      8843      8841      8844      8845
      8843      8841      8844      8846      8843      8841      8844      8847
      8844      8847      8850      8851      8844      8847      8850      8852
      8844      8847      8850      8853      8845      8844      8847      8848
      8845      8844      8847      8849      8845      8844      8847      8850
      8846      8844      8847      8848      8846      8844      8847      8849
      8846      8844      8847      8850      8847      8850      8853      8854
      8847      8850      8853      8855      8847      8850      8853      8856
      8848      8847      8850      8851      8848      8847      8850      8852
      8848      8847      8850      8853      8849      8847      8850      8851
      8849      8847      8850      8852      8849      8847      8850      8853
      8850      8853      8856      8857      8850      8853      8856      8858
      8850      8853      8856      8859      8851      8850      8853      8854
      8851      8850      8853      8855      8851      8850      8853      8856
      8852      8850      8853      8854      8852      8850      8853      8855
      8852      8850      8853      8856      8853      8856      8859      8860
      8853      8856      8859      8861      8853      8856      8859      8862
      8854      8853      8856      8857      8854      8853      8856      8858
      8854      8853      8856      8859      8855      8853      8856      8857
      8855      8853      8856      8858      8855      8853      8856      8859
      8856      8859      8862      8863      8856      8859      8862      8864
      8856      8859      8862      8865      8857      8856      8859      8860
      8857      8856      8859      8861      8857      8856      8859      8862
      8858      8856      8859      8860      8858      8856      8859      8861
      8858      8856      8859      8862      8860      8859      8862      8863
      8860      8859      8862      8864      8860      8859      8862      8865
      8861      8859      8862      8863      8861      8859      8862      8864
      8861      8859      8862      8865      8866      8867      8882      8883
      8866      8867      8882      8884      8866      8867      8882      8888
      8867      8866      8870      8871      8867      8866      8870      8872
      8867      8866      8870      8873      8867      8866      8874      8875
      8867      8866      8874      8876      8867      8866      8874      8877
      8867      8866      8878      8879      8867      8866      8878      8880
      8867      8866      8878      8881      8867      8882      8888      8885
      8868      8867      8866      8870      8868      8867      8866      8874
      8868      8867      8866      8878      8868      8867      8882      8883
      8868      8867      8882      8884      8868      8867      8882      8888
      8869      8867      8866      8870      8869      8867      8866      8874
      8869      8867      8866      8878      8869      8867      8882      8883
      8869      8867      8882      8884      8869      8867      8882      8888
      8870      8866      8867      8882      8870      8866      8874      8875
      8870      8866      8874      8876      8870      8866      8874      8877
      8870      8866      8878      8879      8870      8866      8878      8880
      8870      8866      8878      8881      8871      8870      8866      8874
      8871      8870      8866      8878      8872      8870      8866      8874
      8872      8870      8866      8878      8873      8870      8866      8874
      8873      8870      8866      8878      8874      8866      8867      8882
      8874      8866      8878      8879      8874      8866      8878      8880
      8874      8866      8878      8881      8875      8874      8866      8878
      8876      8874      8866      8878      8877      8874      8866      8878
      8878      8866      8867      8882      8882      8888      8885      8886
      8882      8888      8885      8887      8882      8888      8885      8889
      8883      8882      8888      8885      8884      8882      8888      8885
      8885      8889      8890      8891      8885      8889      8890      8892
      8885      8889      8890      8893      8886      8885      8889      8890
      8887      8885      8889      8890      8888      8885      8889      8890
      8889      8890      8893      8894      8889      8890      8893      8895
      8889      8890      8893      8901      8890      8893      8895      8896
      8890      8893      8901      8902      8890      8893      8901      8903
      8890      8893      8901      8904      8891      8890      8893      8894
      8891      8890      8893      8895      8891      8890      8893      8901
      8892      8890      8893      8894      8892      8890      8893      8895
      8892      8890      8893      8901      8893      8895      8896      8897
      8893      8895      8896      8898      8893      8901      8904      8905
      8894      8893      8895      8896      8894      8893      8901      8902
      8894      8893      8901      8903      8894      8893      8901      8904
      8895      8893      8901      8902      8895      8893      8901      8903
      8895      8893      8901      8904      8895      8896      8898      8899
      8895      8896      8898      8900      8895      8896      8898      8910
      8896      8895      8893      8901      8896      8898      8910      8911
      8896      8898      8910      8912      8896      8898      8910      8913
      8897      8896      8898      8899      8897      8896      8898      8900
      8897      8896      8898      8910      8898      8910      8913      8914
      8898      8910      8913      8915      8898      8910      8913      8916
      8899      8898      8910      8911      8899      8898      8910      8912
      8899      8898      8910      8913      8900      8898      8910      8911
      8900      8898      8910      8912      8900      8898      8910      8913
      8901      8904      8905      8906      8901      8904      8905      8907
      8902      8901      8904      8905      8903      8901      8904      8905
      8904      8905      8907      8908      8904      8905      8907      8909
      8904      8905      8907      8957      8905      8907      8957      8958
      8905      8907      8957      8959      8905      8907      8957      8960
      8906      8905      8907      8908      8906      8905      8907      8909
      8906      8905      8907      8957      8907      8957      8960      8961
      8907      8957      8960      8962      8907      8957      8960      8963
      8908      8907      8957      8958      8908      8907      8957      8959
      8908      8907      8957      8960      8909      8907      8957      8958
      8909      8907      8957      8959      8909      8907      8957      8960
      8910      8913      8916      8917      8910      8913      8916      8918
      8910      8913      8916      8919      8911      8910      8913      8914
      8911      8910      8913      8915      8911      8910      8913      8916
      8912      8910      8913      8914      8912      8910      8913      8915
      8912      8910      8913      8916      8913      8916      8919      8920
      8913      8916      8919      8921      8913      8916      8919      8922
      8914      8913      8916      8917      8914      8913      8916      8918
      8914      8913      8916      8919      8915      8913      8916      8917
      8915      8913      8916      8918      8915      8913      8916      8919
      8916      8919      8922      8923      8916      8919      8922      8924
      8916      8919      8922      8925      8917      8916      8919      8920
      8917      8916      8919      8921      8917      8916      8919      8922
      8918      8916      8919      8920      8918      8916      8919      8921
      8918      8916      8919      8922      8919      8922      8925      8926
      8919      8922      8925      8927      8919      8922      8925      8928
      8920      8919      8922      8923      8920      8919      8922      8924
      8920      8919      8922      8925      8921      8919      8922      8923
      8921      8919      8922      8924      8921      8919      8922      8925
      8922      8925      8928      8929      8922      8925      8928      8930
      8923      8922      8925      8926      8923      8922      8925      8927
      8923      8922      8925      8928      8924      8922      8925      8926
      8924      8922      8925      8927      8924      8922      8925      8928
      8925      8928      8930      8931      8925      8928      8930      8932
      8926      8925      8928      8929      8926      8925      8928      8930
      8927      8925      8928      8929      8927      8925      8928      8930
      8928      8930      8932      8933      8928      8930      8932      8934
      8928      8930      8932      8935      8929      8928      8930      8931
      8929      8928      8930      8932      8930      8932      8935      8936
      8930      8932      8935      8937      8930      8932      8935      8938
      8931      8930      8932      8933      8931      8930      8932      8934
      8931      8930      8932      8935      8932      8935      8938      8939
      8932      8935      8938      8940      8932      8935      8938      8941
      8933      8932      8935      8936      8933      8932      8935      8937
      8933      8932      8935      8938      8934      8932      8935      8936
      8934      8932      8935      8937      8934      8932      8935      8938
      8935      8938      8941      8942      8935      8938      8941      8943
      8935      8938      8941      8944      8936      8935      8938      8939
      8936      8935      8938      8940      8936      8935      8938      8941
      8937      8935      8938      8939      8937      8935      8938      8940
      8937      8935      8938      8941      8938      8941      8944      8945
      8938      8941      8944      8946      8938      8941      8944      8947
      8939      8938      8941      8942      8939      8938      8941      8943
      8939      8938      8941      8944      8940      8938      8941      8942
      8940      8938      8941      8943      8940      8938      8941      8944
      8941      8944      8947      8948      8941      8944      8947      8949
      8941      8944      8947      8950      8942      8941      8944      8945
      8942      8941      8944      8946      8942      8941      8944      8947
      8943      8941      8944      8945      8943      8941      8944      8946
      8943      8941      8944      8947      8944      8947      8950      8951
      8944      8947      8950      8952      8944      8947      8950      8953
      8945      8944      8947      8948      8945      8944      8947      8949
      8945      8944      8947      8950      8946      8944      8947      8948
      8946      8944      8947      8949      8946      8944      8947      8950
      8947      8950      8953      8954      8947      8950      8953      8955
      8947      8950      8953      8956      8948      8947      8950      8951
      8948      8947      8950      8952      8948      8947      8950      8953
      8949      8947      8950      8951      8949      8947      8950      8952
      8949      8947      8950      8953      8951      8950      8953      8954
      8951      8950      8953      8955      8951      8950      8953      8956
      8952      8950      8953      8954      8952      8950      8953      8955
      8952      8950      8953      8956      8957      8960      8963      8964
      8957      8960      8963      8965      8957      8960      8963      8966
      8958      8957      8960      8961      8958      8957      8960      8962
      8958      8957      8960      8963      8959      8957      8960      8961
      8959      8957      8960      8962      8959      8957      8960      8963
      8960      8963      8966      8967      8960      8963      8966      8968
      8960      8963      8966      8969      8961      8960      8963      8964
      8961      8960      8963      8965      8961      8960      8963      8966
      8962      8960      8963      8964      8962      8960      8963      8965
      8962      8960      8963      8966      8963      8966      8969      8970
      8963      8966      8969      8971      8963      8966      8969      8972
      8964      8963      8966      8967      8964      8963      8966      8968
      8964      8963      8966      8969      8965      8963      8966      8967
      8965      8963      8966      8968      8965      8963      8966      8969
      8966      8969      8972      8973      8966      8969      8972      8974
      8966      8969      8972      8975      8967      8966      8969      8970
      8967      8966      8969      8971      8967      8966      8969      8972
      8968      8966      8969      8970      8968      8966      8969      8971
      8968      8966      8969      8972      8969      8972      8975      8976
      8969      8972      8975      8977      8969      8972      8975      8978
      8970      8969      8972      8973      8970      8969      8972      8974
      8970      8969      8972      8975      8971      8969      8972      8973
      8971      8969      8972      8974      8971      8969      8972      8975
      8972      8975      8978      8979      8972      8975      8978      8980
      8972      8975      8978      8981      8973      8972      8975      8976
      8973      8972      8975      8977      8973      8972      8975      8978
      8974      8972      8975      8976      8974      8972      8975      8977
      8974      8972      8975      8978      8975      8978      8981      8982
      8975      8978      8981      8983      8975      8978      8981      8984
      8976      8975      8978      8979      8976      8975      8978      8980
      8976      8975      8978      8981      8977      8975      8978      8979
      8977      8975      8978      8980      8977      8975      8978      8981
      8978      8981      8984      8985      8978      8981      8984      8986
      8978      8981      8984      8987      8979      8978      8981      8982
      8979      8978      8981      8983      8979      8978      8981      8984
      8980      8978      8981      8982      8980      8978      8981      8983
      8980      8978      8981      8984      8981      8984      8987      8988
      8981      8984      8987      8989      8981      8984      8987      8990
      8982      8981      8984      8985      8982      8981      8984      8986
      8982      8981      8984      8987      8983      8981      8984      8985
      8983      8981      8984      8986      8983      8981      8984      8987
      8984      8987      8990      8991      8984      8987      8990      8992
      8984      8987      8990      8993      8985      8984      8987      8988
      8985      8984      8987      8989      8985      8984      8987      8990
      8986      8984      8987      8988      8986      8984      8987      8989
      8986      8984      8987      8990      8987      8990      8993      8994
      8987      8990      8993      8995      8987      8990      8993      8996
      8988      8987      8990      8991      8988      8987      8990      8992
      8988      8987      8990      8993      8989      8987      8990      8991
      8989      8987      8990      8992      8989      8987      8990      8993
      8990      8993      8996      8997      8990      8993      8996      8998
      8990      8993      8996      8999      8991      8990      8993      8994
      8991      8990      8993      8995      8991      8990      8993      8996
      8992      8990      8993      8994      8992      8990      8993      8995
      8992      8990      8993      8996      8994      8993      8996      8997
      8994      8993      8996      8998      8994      8993      8996      8999
      8995      8993      8996      8997      8995      8993      8996      8998
      8995      8993      8996      8999      9000      9004      9006      9007
      9000      9004      9006      9008      9000      9004      9009      9010
      9000      9004      9009      9011      9000      9004      9009      9015
      9001      9000      9004      9005      9001      9000      9004      9006
      9001      9000      9004      9009      9002      9000      9004      9005
      9002      9000      9004      9006      9002      9000      9004      9009
      9003      9000      9004      9005      9003      9000      9004      9006
      9003      9000      9004      9009      9004      9009      9015      9012
      9005      9004      9006      9007      9005      9004      9006      9008
      9005      9004      9009      9010      9005      9004      9009      9011
      9005      9004      9009      9015      9006      9004      9009      9010
      9006      9004      9009      9011      9006      9004      9009      9015
      9007      9006      9004      9009      9008      9006      9004      9009
      9009      9015      9012      9013      9009      9015      9012      9014
      9009      9015      9012      9016      9010      9009      9015      9012
      9011      9009      9015      9012      9012      9016      9017      9018
      9012      9016      9017      9019      9012      9016      9017      9020
      9013      9012      9016      9017      9014      9012      9016      9017
      9015      9012      9016      9017      9016      9017      9020      9021
      9016      9017      9020      9022      9016      9017      9020      9028
      9017      9020      9022      9023      9017      9020      9028      9029
      9017      9020      9028      9030      9017      9020      9028      9031
      9018      9017      9020      9021      9018      9017      9020      9022
      9018      9017      9020      9028      9019      9017      9020      9021
      9019      9017      9020      9022      9019      9017      9020      9028
      9020      9022      9023      9024      9020      9022      9023      9025
      9020      9028      9031      9032      9021      9020      9022      9023
      9021      9020      9028      9029      9021      9020      9028      9030
      9021      9020      9028      9031      9022      9020      9028      9029
      9022      9020      9028      9030      9022      9020      9028      9031
      9022      9023      9025      9026      9022      9023      9025      9027
      9022      9023      9025      9037      9023      9022      9020      9028
      9023      9025      9037      9038      9023      9025      9037      9039
      9023      9025      9037      9040      9024      9023      9025      9026
      9024      9023      9025      9027      9024      9023      9025      9037
      9025      9037      9040      9041      9025      9037      9040      9042
      9025      9037      9040      9043      9026      9025      9037      9038
      9026      9025      9037      9039      9026      9025      9037      9040
      9027      9025      9037      9038      9027      9025      9037      9039
      9027      9025      9037      9040      9028      9031      9032      9033
      9028      9031      9032      9034      9029      9028      9031      9032
      9030      9028      9031      9032      9031      9032      9034      9035
      9031      9032      9034      9036      9031      9032      9034      9084
      9032      9034      9084      9085      9032      9034      9084      9086
      9032      9034      9084      9087      9033      9032      9034      9035
      9033      9032      9034      9036      9033      9032      9034      9084
      9034      9084      9087      9088      9034      9084      9087      9089
      9034      9084      9087      9090      9035      9034      9084      9085
      9035      9034      9084      9086      9035      9034      9084      9087
      9036      9034      9084      9085      9036      9034      9084      9086
      9036      9034      9084      9087      9037      9040      9043      9044
      9037      9040      9043      9045      9037      9040      9043      9046
      9038      9037      9040      9041      9038      9037      9040      9042
      9038      9037      9040      9043      9039      9037      9040      9041
      9039      9037      9040      9042      9039      9037      9040      9043
      9040      9043      9046      9047      9040      9043      9046      9048
      9040      9043      9046      9049      9041      9040      9043      9044
      9041      9040      9043      9045      9041      9040      9043      9046
      9042      9040      9043      9044      9042      9040      9043      9045
      9042      9040      9043      9046      9043      9046      9049      9050
      9043      9046      9049      9051      9043      9046      9049      9052
      9044      9043      9046      9047      9044      9043      9046      9048
      9044      9043      9046      9049      9045      9043      9046      9047
      9045      9043      9046      9048      9045      9043      9046      9049
      9046      9049      9052      9053      9046      9049      9052      9054
      9046      9049      9052      9055      9047      9046      9049      9050
      9047      9046      9049      9051      9047      9046      9049      9052
      9048      9046      9049      9050      9048      9046      9049      9051
      9048      9046      9049      9052      9049      9052      9055      9056
      9049      9052      9055      9057      9050      9049      9052      9053
      9050      9049      9052      9054      9050      9049      9052      9055
      9051      9049      9052      9053      9051      9049      9052      9054
      9051      9049      9052      9055      9052      9055      9057      9058
      9052      9055      9057      9059      9053      9052      9055      9056
      9053      9052      9055      9057      9054      9052      9055      9056
      9054      9052      9055      9057      9055      9057      9059      9060
      9055      9057      9059      9061      9055      9057      9059      9062
      9056      9055      9057      9058      9056      9055      9057      9059
      9057      9059      9062      9063      9057      9059      9062      9064
      9057      9059      9062      9065      9058      9057      9059      9060
      9058      9057      9059      9061      9058      9057      9059      9062
      9059      9062      9065      9066      9059      9062      9065      9067
      9059      9062      9065      9068      9060      9059      9062      9063
      9060      9059      9062      9064      9060      9059      9062      9065
      9061      9059      9062      9063      9061      9059      9062      9064
      9061      9059      9062      9065      9062      9065      9068      9069
      9062      9065      9068      9070      9062      9065      9068      9071
      9063      9062      9065      9066      9063      9062      9065      9067
      9063      9062      9065      9068      9064      9062      9065      9066
      9064      9062      9065      9067      9064      9062      9065      9068
      9065      9068      9071      9072      9065      9068      9071      9073
      9065      9068      9071      9074      9066      9065      9068      9069
      9066      9065      9068      9070      9066      9065      9068      9071
      9067      9065      9068      9069      9067      9065      9068      9070
      9067      9065      9068      9071      9068      9071      9074      9075
      9068      9071      9074      9076      9068      9071      9074      9077
      9069      9068      9071      9072      9069      9068      9071      9073
      9069      9068      9071      9074      9070      9068      9071      9072
      9070      9068      9071      9073      9070      9068      9071      9074
      9071      9074      9077      9078      9071      9074      9077      9079
      9071      9074      9077      9080      9072      9071      9074      9075
      9072      9071      9074      9076      9072      9071      9074      9077
      9073      9071      9074      9075      9073      9071      9074      9076
      9073      9071      9074      9077      9074      9077      9080      9081
      9074      9077      9080      9082      9074      9077      9080      9083
      9075      9074      9077      9078      9075      9074      9077      9079
      9075      9074      9077      9080      9076      9074      9077      9078
      9076      9074      9077      9079      9076      9074      9077      9080
      9078      9077      9080      9081      9078      9077      9080      9082
      9078      9077      9080      9083      9079      9077      9080      9081
      9079      9077      9080      9082      9079      9077      9080      9083
      9084      9087      9090      9091      9084      9087      9090      9092
      9084      9087      9090      9093      9085      9084      9087      9088
      9085      9084      9087      9089      9085      9084      9087      9090
      9086      9084      9087      9088      9086      9084      9087      9089
      9086      9084      9087      9090      9087      9090      9093      9094
      9087      9090      9093      9095      9087      9090      9093      9096
      9088      9087      9090      9091      9088      9087      9090      9092
      9088      9087      9090      9093      9089      9087      9090      9091
      9089      9087      9090      9092      9089      9087      9090      9093
      9090      9093      9096      9097      9090      9093      9096      9098
      9090      9093      9096      9099      9091      9090      9093      9094
      9091      9090      9093      9095      9091      9090      9093      9096
      9092      9090      9093      9094      9092      9090      9093      9095
      9092      9090      9093      9096      9093      9096      9099      9100
      9093      9096      9099      9101      9093      9096      9099      9102
      9094      9093      9096      9097      9094      9093      9096      9098
      9094      9093      9096      9099      9095      9093      9096      9097
      9095      9093      9096      9098      9095      9093      9096      9099
      9096      9099      9102      9103      9096      9099      9102      9104
      9096      9099      9102      9105      9097      9096      9099      9100
      9097      9096      9099      9101      9097      9096      9099      9102
      9098      9096      9099      9100      9098      9096      9099      9101
      9098      9096      9099      9102      9099      9102      9105      9106
      9099      9102      9105      9107      9099      9102      9105      9108
      9100      9099      9102      9103      9100      9099      9102      9104
      9100      9099      9102      9105      9101      9099      9102      9103
      9101      9099      9102      9104      9101      9099      9102      9105
      9102      9105      9108      9109      9102      9105      9108      9110
      9102      9105      9108      9111      9103      9102      9105      9106
      9103      9102      9105      9107      9103      9102      9105      9108
      9104      9102      9105      9106      9104      9102      9105      9107
      9104      9102      9105      9108      9105      9108      9111      9112
      9105      9108      9111      9113      9105      9108      9111      9114
      9106      9105      9108      9109      9106      9105      9108      9110
      9106      9105      9108      9111      9107      9105      9108      9109
      9107      9105      9108      9110      9107      9105      9108      9111
      9108      9111      9114      9115      9108      9111      9114      9116
      9108      9111      9114      9117      9109      9108      9111      9112
      9109      9108      9111      9113      9109      9108      9111      9114
      9110      9108      9111      9112      9110      9108      9111      9113
      9110      9108      9111      9114      9111      9114      9117      9118
      9111      9114      9117      9119      9111      9114      9117      9120
      9112      9111      9114      9115      9112      9111      9114      9116
      9112      9111      9114      9117      9113      9111      9114      9115
      9113      9111      9114      9116      9113      9111      9114      9117
      9114      9117      9120      9121      9114      9117      9120      9122
      9114      9117      9120      9123      9115      9114      9117      9118
      9115      9114      9117      9119      9115      9114      9117      9120
      9116      9114      9117      9118      9116      9114      9117      9119
      9116      9114      9117      9120      9117      9120      9123      9124
      9117      9120      9123      9125      9117      9120      9123      9126
      9118      9117      9120      9121      9118      9117      9120      9122
      9118      9117      9120      9123      9119      9117      9120      9121
      9119      9117      9120      9122      9119      9117      9120      9123
      9121      9120      9123      9124      9121      9120      9123      9125
      9121      9120      9123      9126      9122      9120      9123      9124
      9122      9120      9123      9125      9122      9120      9123      9126
      9127      9131      9133      9134      9127      9131      9133      9135
      9127      9131      9136      9137      9127      9131      9136      9138
      9127      9131      9136      9142      9128      9127      9131      9132
      9128      9127      9131      9133      9128      9127      9131      9136
      9129      9127      9131      9132      9129      9127      9131      9133
      9129      9127      9131      9136      9130      9127      9131      9132
      9130      9127      9131      9133      9130      9127      9131      9136
      9131      9136      9142      9139      9132      9131      9133      9134
      9132      9131      9133      9135      9132      9131      9136      9137
      9132      9131      9136      9138      9132      9131      9136      9142
      9133      9131      9136      9137      9133      9131      9136      9138
      9133      9131      9136      9142      9134      9133      9131      9136
      9135      9133      9131      9136      9136      9142      9139      9140
      9136      9142      9139      9141      9136      9142      9139      9143
      9137      9136      9142      9139      9138      9136      9142      9139
      9139      9143      9144      9145      9139      9143      9144      9146
      9139      9143      9144      9147      9140      9139      9143      9144
      9141      9139      9143      9144      9142      9139      9143      9144
      9143      9144      9147      9148      9143      9144      9147      9149
      9143      9144      9147      9155      9144      9147      9149      9150
      9144      9147      9155      9156      9144      9147      9155      9157
      9144      9147      9155      9158      9145      9144      9147      9148
      9145      9144      9147      9149      9145      9144      9147      9155
      9146      9144      9147      9148      9146      9144      9147      9149
      9146      9144      9147      9155      9147      9149      9150      9151
      9147      9149      9150      9152      9147      9155      9158      9159
      9148      9147      9149      9150      9148      9147      9155      9156
      9148      9147      9155      9157      9148      9147      9155      9158
      9149      9147      9155      9156      9149      9147      9155      9157
      9149      9147      9155      9158      9149      9150      9152      9153
      9149      9150      9152      9154      9149      9150      9152      9164
      9150      9149      9147      9155      9150      9152      9164      9165
      9150      9152      9164      9166      9150      9152      9164      9167
      9151      9150      9152      9153      9151      9150      9152      9154
      9151      9150      9152      9164      9152      9164      9167      9168
      9152      9164      9167      9169      9152      9164      9167      9170
      9153      9152      9164      9165      9153      9152      9164      9166
      9153      9152      9164      9167      9154      9152      9164      9165
      9154      9152      9164      9166      9154      9152      9164      9167
      9155      9158      9159      9160      9155      9158      9159      9161
      9156      9155      9158      9159      9157      9155      9158      9159
      9158      9159      9161      9162      9158      9159      9161      9163
      9158      9159      9161      9211      9159      9161      9211      9212
      9159      9161      9211      9213      9159      9161      9211      9214
      9160      9159      9161      9162      9160      9159      9161      9163
      9160      9159      9161      9211      9161      9211      9214      9215
      9161      9211      9214      9216      9161      9211      9214      9217
      9162      9161      9211      9212      9162      9161      9211      9213
      9162      9161      9211      9214      9163      9161      9211      9212
      9163      9161      9211      9213      9163      9161      9211      9214
      9164      9167      9170      9171      9164      9167      9170      9172
      9164      9167      9170      9173      9165      9164      9167      9168
      9165      9164      9167      9169      9165      9164      9167      9170
      9166      9164      9167      9168      9166      9164      9167      9169
      9166      9164      9167      9170      9167      9170      9173      9174
      9167      9170      9173      9175      9167      9170      9173      9176
      9168      9167      9170      9171      9168      9167      9170      9172
      9168      9167      9170      9173      9169      9167      9170      9171
      9169      9167      9170      9172      9169      9167      9170      9173
      9170      9173      9176      9177      9170      9173      9176      9178
      9170      9173      9176      9179      9171      9170      9173      9174
      9171      9170      9173      9175      9171      9170      9173      9176
      9172      9170      9173      9174      9172      9170      9173      9175
      9172      9170      9173      9176      9173      9176      9179      9180
      9173      9176      9179      9181      9173      9176      9179      9182
      9174      9173      9176      9177      9174      9173      9176      9178
      9174      9173      9176      9179      9175      9173      9176      9177
      9175      9173      9176      9178      9175      9173      9176      9179
      9176      9179      9182      9183      9176      9179      9182      9184
      9177      9176      9179      9180      9177      9176      9179      9181
      9177      9176      9179      9182      9178      9176      9179      9180
      9178      9176      9179      9181      9178      9176      9179      9182
      9179      9182      9184      9185      9179      9182      9184      9186
      9180      9179      9182      9183      9180      9179      9182      9184
      9181      9179      9182      9183      9181      9179      9182      9184
      9182      9184      9186      9187      9182      9184      9186      9188
      9182      9184      9186      9189      9183      9182      9184      9185
      9183      9182      9184      9186      9184      9186      9189      9190
      9184      9186      9189      9191      9184      9186      9189      9192
      9185      9184      9186      9187      9185      9184      9186      9188
      9185      9184      9186      9189      9186      9189      9192      9193
      9186      9189      9192      9194      9186      9189      9192      9195
      9187      9186      9189      9190      9187      9186      9189      9191
      9187      9186      9189      9192      9188      9186      9189      9190
      9188      9186      9189      9191      9188      9186      9189      9192
      9189      9192      9195      9196      9189      9192      9195      9197
      9189      9192      9195      9198      9190      9189      9192      9193
      9190      9189      9192      9194      9190      9189      9192      9195
      9191      9189      9192      9193      9191      9189      9192      9194
      9191      9189      9192      9195      9192      9195      9198      9199
      9192      9195      9198      9200      9192      9195      9198      9201
      9193      9192      9195      9196      9193      9192      9195      9197
      9193      9192      9195      9198      9194      9192      9195      9196
      9194      9192      9195      9197      9194      9192      9195      9198
      9195      9198      9201      9202      9195      9198      9201      9203
      9195      9198      9201      9204      9196      9195      9198      9199
      9196      9195      9198      9200      9196      9195      9198      9201
      9197      9195      9198      9199      9197      9195      9198      9200
      9197      9195      9198      9201      9198      9201      9204      9205
      9198      9201      9204      9206      9198      9201      9204      9207
      9199      9198      9201      9202      9199      9198      9201      9203
      9199      9198      9201      9204      9200      9198      9201      9202
      9200      9198      9201      9203      9200      9198      9201      9204
      9201      9204      9207      9208      9201      9204      9207      9209
      9201      9204      9207      9210      9202      9201      9204      9205
      9202      9201      9204      9206      9202      9201      9204      9207
      9203      9201      9204      9205      9203      9201      9204      9206
      9203      9201      9204      9207      9205      9204      9207      9208
      9205      9204      9207      9209      9205      9204      9207      9210
      9206      9204      9207      9208      9206      9204      9207      9209
      9206      9204      9207      9210      9211      9214      9217      9218
      9211      9214      9217      9219      9211      9214      9217      9220
      9212      9211      9214      9215      9212      9211      9214      9216
      9212      9211      9214      9217      9213      9211      9214      9215
      9213      9211      9214      9216      9213      9211      9214      9217
      9214      9217      9220      9221      9214      9217      9220      9222
      9214      9217      9220      9223      9215      9214      9217      9218
      9215      9214      9217      9219      9215      9214      9217      9220
      9216      9214      9217      9218      9216      9214      9217      9219
      9216      9214      9217      9220      9217      9220      9223      9224
      9217      9220      9223      9225      9217      9220      9223      9226
      9218      9217      9220      9221      9218      9217      9220      9222
      9218      9217      9220      9223      9219      9217      9220      9221
      9219      9217      9220      9222      9219      9217      9220      9223
      9220      9223      9226      9227      9220      9223      9226      9228
      9220      9223      9226      9229      9221      9220      9223      9224
      9221      9220      9223      9225      9221      9220      9223      9226
      9222      9220      9223      9224      9222      9220      9223      9225
      9222      9220      9223      9226      9223      9226      9229      9230
      9223      9226      9229      9231      9223      9226      9229      9232
      9224      9223      9226      9227      9224      9223      9226      9228
      9224      9223      9226      9229      9225      9223      9226      9227
      9225      9223      9226      9228      9225      9223      9226      9229
      9226      9229      9232      9233      9226      9229      9232      9234
      9226      9229      9232      9235      9227      9226      9229      9230
      9227      9226      9229      9231      9227      9226      9229      9232
      9228      9226      9229      9230      9228      9226      9229      9231
      9228      9226      9229      9232      9229      9232      9235      9236
      9229      9232      9235      9237      9229      9232      9235      9238
      9230      9229      9232      9233      9230      9229      9232      9234
      9230      9229      9232      9235      9231      9229      9232      9233
      9231      9229      9232      9234      9231      9229      9232      9235
      9232      9235      9238      9239      9232      9235      9238      9240
      9232      9235      9238      9241      9233      9232      9235      9236
      9233      9232      9235      9237      9233      9232      9235      9238
      9234      9232      9235      9236      9234      9232      9235      9237
      9234      9232      9235      9238      9235      9238      9241      9242
      9235      9238      9241      9243      9235      9238      9241      9244
      9236      9235      9238      9239      9236      9235      9238      9240
      9236      9235      9238      9241      9237      9235      9238      9239
      9237      9235      9238      9240      9237      9235      9238      9241
      9238      9241      9244      9245      9238      9241      9244      9246
      9238      9241      9244      9247      9239      9238      9241      9242
      9239      9238      9241      9243      9239      9238      9241      9244
      9240      9238      9241      9242      9240      9238      9241      9243
      9240      9238      9241      9244      9241      9244      9247      9248
      9241      9244      9247      9249      9241      9244      9247      9250
      9242      9241      9244      9245      9242      9241      9244      9246
      9242      9241      9244      9247      9243      9241      9244      9245
      9243      9241      9244      9246      9243      9241      9244      9247
      9244      9247      9250      9251      9244      9247      9250      9252
      9244      9247      9250      9253      9245      9244      9247      9248
      9245      9244      9247      9249      9245      9244      9247      9250
      9246      9244      9247      9248      9246      9244      9247      9249
      9246      9244      9247      9250      9248      9247      9250      9251
      9248      9247      9250      9252      9248      9247      9250      9253
      9249      9247      9250      9251      9249      9247      9250      9252
      9249      9247      9250      9253      9254      9255      9270      9271
      9254      9255      9270      9272      9254      9255      9270      9276
      9255      9254      9258      9259      9255      9254      9258      9260
      9255      9254      9258      9261      9255      9254      9262      9263
      9255      9254      9262      9264      9255      9254      9262      9265
      9255      9254      9266      9267      9255      9254      9266      9268
      9255      9254      9266      9269      9255      9270      9276      9273
      9256      9255      9254      9258      9256      9255      9254      9262
      9256      9255      9254      9266      9256      9255      9270      9271
      9256      9255      9270      9272      9256      9255      9270      9276
      9257      9255      9254      9258      9257      9255      9254      9262
      9257      9255      9254      9266      9257      9255      9270      9271
      9257      9255      9270      9272      9257      9255      9270      9276
      9258      9254      9255      9270      9258      9254      9262      9263
      9258      9254      9262      9264      9258      9254      9262      9265
      9258      9254      9266      9267      9258      9254      9266      9268
      9258      9254      9266      9269      9259      9258      9254      9262
      9259      9258      9254      9266      9260      9258      9254      9262
      9260      9258      9254      9266      9261      9258      9254      9262
      9261      9258      9254      9266      9262      9254      9255      9270
      9262      9254      9266      9267      9262      9254      9266      9268
      9262      9254      9266      9269      9263      9262      9254      9266
      9264      9262      9254      9266      9265      9262      9254      9266
      9266      9254      9255      9270      9270      9276      9273      9274
      9270      9276      9273      9275      9270      9276      9273      9277
      9271      9270      9276      9273      9272      9270      9276      9273
      9273      9277      9278      9279      9273      9277      9278      9280
      9273      9277      9278      9281      9274      9273      9277      9278
      9275      9273      9277      9278      9276      9273      9277      9278
      9277      9278      9281      9282      9277      9278      9281      9283
      9277      9278      9281      9289      9278      9281      9283      9284
      9278      9281      9289      9290      9278      9281      9289      9291
      9278      9281      9289      9292      9279      9278      9281      9282
      9279      9278      9281      9283      9279      9278      9281      9289
      9280      9278      9281      9282      9280      9278      9281      9283
      9280      9278      9281      9289      9281      9283      9284      9285
      9281      9283      9284      9286      9281      9289      9292      9293
      9282      9281      9283      9284      9282      9281      9289      9290
      9282      9281      9289      9291      9282      9281      9289      9292
      9283      9281      9289      9290      9283      9281      9289      9291
      9283      9281      9289      9292      9283      9284      9286      9287
      9283      9284      9286      9288      9283      9284      9286      9298
      9284      9283      9281      9289      9284      9286      9298      9299
      9284      9286      9298      9300      9284      9286      9298      9301
      9285      9284      9286      9287      9285      9284      9286      9288
      9285      9284      9286      9298      9286      9298      9301      9302
      9286      9298      9301      9303      9286      9298      9301      9304
      9287      9286      9298      9299      9287      9286      9298      9300
      9287      9286      9298      9301      9288      9286      9298      9299
      9288      9286      9298      9300      9288      9286      9298      9301
      9289      9292      9293      9294      9289      9292      9293      9295
      9290      9289      9292      9293      9291      9289      9292      9293
      9292      9293      9295      9296      9292      9293      9295      9297
      9292      9293      9295      9345      9293      9295      9345      9346
      9293      9295      9345      9347      9293      9295      9345      9348
      9294      9293      9295      9296      9294      9293      9295      9297
      9294      9293      9295      9345      9295      9345      9348      9349
      9295      9345      9348      9350      9295      9345      9348      9351
      9296      9295      9345      9346      9296      9295      9345      9347
      9296      9295      9345      9348      9297      9295      9345      9346
      9297      9295      9345      9347      9297      9295      9345      9348
      9298      9301      9304      9305      9298      9301      9304      9306
      9298      9301      9304      9307      9299      9298      9301      9302
      9299      9298      9301      9303      9299      9298      9301      9304
      9300      9298      9301      9302      9300      9298      9301      9303
      9300      9298      9301      9304      9301      9304      9307      9308
      9301      9304      9307      9309      9301      9304      9307      9310
      9302      9301      9304      9305      9302      9301      9304      9306
      9302      9301      9304      9307      9303      9301      9304      9305
      9303      9301      9304      9306      9303      9301      9304      9307
      9304      9307      9310      9311      9304      9307      9310      9312
      9304      9307      9310      9313      9305      9304      9307      9308
      9305      9304      9307      9309      9305      9304      9307      9310
      9306      9304      9307      9308      9306      9304      9307      9309
      9306      9304      9307      9310      9307      9310      9313      9314
      9307      9310      9313      9315      9307      9310      9313      9316
      9308      9307      9310      9311      9308      9307      9310      9312
      9308      9307      9310      9313      9309      9307      9310      9311
      9309      9307      9310      9312      9309      9307      9310      9313
      9310      9313      9316      9317      9310      9313      9316      9318
      9311      9310      9313      9314      9311      9310      9313      9315
      9311      9310      9313      9316      9312      9310      9313      9314
      9312      9310      9313      9315      9312      9310      9313      9316
      9313      9316      9318      9319      9313      9316      9318      9320
      9314      9313      9316      9317      9314      9313      9316      9318
      9315      9313      9316      9317      9315      9313      9316      9318
      9316      9318      9320      9321      9316      9318      9320      9322
      9316      9318      9320      9323      9317      9316      9318      9319
      9317      9316      9318      9320      9318      9320      9323      9324
      9318      9320      9323      9325      9318      9320      9323      9326
      9319      9318      9320      9321      9319      9318      9320      9322
      9319      9318      9320      9323      9320      9323      9326      9327
      9320      9323      9326      9328      9320      9323      9326      9329
      9321      9320      9323      9324      9321      9320      9323      9325
      9321      9320      9323      9326      9322      9320      9323      9324
      9322      9320      9323      9325      9322      9320      9323      9326
      9323      9326      9329      9330      9323      9326      9329      9331
      9323      9326      9329      9332      9324      9323      9326      9327
      9324      9323      9326      9328      9324      9323      9326      9329
      9325      9323      9326      9327      9325      9323      9326      9328
      9325      9323      9326      9329      9326      9329      9332      9333
      9326      9329      9332      9334      9326      9329      9332      9335
      9327      9326      9329      9330      9327      9326      9329      9331
      9327      9326      9329      9332      9328      9326      9329      9330
      9328      9326      9329      9331      9328      9326      9329      9332
      9329      9332      9335      9336      9329      9332      9335      9337
      9329      9332      9335      9338      9330      9329      9332      9333
      9330      9329      9332      9334      9330      9329      9332      9335
      9331      9329      9332      9333      9331      9329      9332      9334
      9331      9329      9332      9335      9332      9335      9338      9339
      9332      9335      9338      9340      9332      9335      9338      9341
      9333      9332      9335      9336      9333      9332      9335      9337
      9333      9332      9335      9338      9334      9332      9335      9336
      9334      9332      9335      9337      9334      9332      9335      9338
      9335      9338      9341      9342      9335      9338      9341      9343
      9335      9338      9341      9344      9336      9335      9338      9339
      9336      9335      9338      9340      9336      9335      9338      9341
      9337      9335      9338      9339      9337      9335      9338      9340
      9337      9335      9338      9341      9339      9338      9341      9342
      9339      9338      9341      9343      9339      9338      9341      9344
      9340      9338      9341      9342      9340      9338      9341      9343
      9340      9338      9341      9344      9345      9348      9351      9352
      9345      9348      9351      9353      9345      9348      9351      9354
      9346      9345      9348      9349      9346      9345      9348      9350
      9346      9345      9348      9351      9347      9345      9348      9349
      9347      9345      9348      9350      9347      9345      9348      9351
      9348      9351      9354      9355      9348      9351      9354      9356
      9348      9351      9354      9357      9349      9348      9351      9352
      9349      9348      9351      9353      9349      9348      9351      9354
      9350      9348      9351      9352      9350      9348      9351      9353
      9350      9348      9351      9354      9351      9354      9357      9358
      9351      9354      9357      9359      9351      9354      9357      9360
      9352      9351      9354      9355      9352      9351      9354      9356
      9352      9351      9354      9357      9353      9351      9354      9355
      9353      9351      9354      9356      9353      9351      9354      9357
      9354      9357      9360      9361      9354      9357      9360      9362
      9354      9357      9360      9363      9355      9354      9357      9358
      9355      9354      9357      9359      9355      9354      9357      9360
      9356      9354      9357      9358      9356      9354      9357      9359
      9356      9354      9357      9360      9357      9360      9363      9364
      9357      9360      9363      9365      9357      9360      9363      9366
      9358      9357      9360      9361      9358      9357      9360      9362
      9358      9357      9360      9363      9359      9357      9360      9361
      9359      9357      9360      9362      9359      9357      9360      9363
      9360      9363      9366      9367      9360      9363      9366      9368
      9360      9363      9366      9369      9361      9360      9363      9364
      9361      9360      9363      9365      9361      9360      9363      9366
      9362      9360      9363      9364      9362      9360      9363      9365
      9362      9360      9363      9366      9363      9366      9369      9370
      9363      9366      9369      9371      9363      9366      9369      9372
      9364      9363      9366      9367      9364      9363      9366      9368
      9364      9363      9366      9369      9365      9363      9366      9367
      9365      9363      9366      9368      9365      9363      9366      9369
      9366      9369      9372      9373      9366      9369      9372      9374
      9366      9369      9372      9375      9367      9366      9369      9370
      9367      9366      9369      9371      9367      9366      9369      9372
      9368      9366      9369      9370      9368      9366      9369      9371
      9368      9366      9369      9372      9369      9372      9375      9376
      9369      9372      9375      9377      9369      9372      9375      9378
      9370      9369      9372      9373      9370      9369      9372      9374
      9370      9369      9372      9375      9371      9369      9372      9373
      9371      9369      9372      9374      9371      9369      9372      9375
      9372      9375      9378      9379      9372      9375      9378      9380
      9372      9375      9378      9381      9373      9372      9375      9376
      9373      9372      9375      9377      9373      9372      9375      9378
      9374      9372      9375      9376      9374      9372      9375      9377
      9374      9372      9375      9378      9375      9378      9381      9382
      9375      9378      9381      9383      9375      9378      9381      9384
      9376      9375      9378      9379      9376      9375      9378      9380
      9376      9375      9378      9381      9377      9375      9378      9379
      9377      9375      9378      9380      9377      9375      9378      9381
      9378      9381      9384      9385      9378      9381      9384      9386
      9378      9381      9384      9387      9379      9378      9381      9382
      9379      9378      9381      9383      9379      9378      9381      9384
      9380      9378      9381      9382      9380      9378      9381      9383
      9380      9378      9381      9384      9382      9381      9384      9385
      9382      9381      9384      9386      9382      9381      9384      9387
      9383      9381      9384      9385      9383      9381      9384      9386
      9383      9381      9384      9387      9388      9389      9404      9405
      9388      9389      9404      9406      9388      9389      9404      9410
      9389      9388      9392      9393      9389      9388      9392      9394
      9389      9388      9392      9395      9389      9388      9396      9397
      9389      9388      9396      9398      9389      9388      9396      9399
      9389      9388      9400      9401      9389      9388      9400      9402
      9389      9388      9400      9403      9389      9404      9410      9407
      9390      9389      9388      9392      9390      9389      9388      9396
      9390      9389      9388      9400      9390      9389      9404      9405
      9390      9389      9404      9406      9390      9389      9404      9410
      9391      9389      9388      9392      9391      9389      9388      9396
      9391      9389      9388      9400      9391      9389      9404      9405
      9391      9389      9404      9406      9391      9389      9404      9410
      9392      9388      9389      9404      9392      9388      9396      9397
      9392      9388      9396      9398      9392      9388      9396      9399
      9392      9388      9400      9401      9392      9388      9400      9402
      9392      9388      9400      9403      9393      9392      9388      9396
      9393      9392      9388      9400      9394      9392      9388      9396
      9394      9392      9388      9400      9395      9392      9388      9396
      9395      9392      9388      9400      9396      9388      9389      9404
      9396      9388      9400      9401      9396      9388      9400      9402
      9396      9388      9400      9403      9397      9396      9388      9400
      9398      9396      9388      9400      9399      9396      9388      9400
      9400      9388      9389      9404      9404      9410      9407      9408
      9404      9410      9407      9409      9404      9410      9407      9411
      9405      9404      9410      9407      9406      9404      9410      9407
      9407      9411      9412      9413      9407      9411      9412      9414
      9407      9411      9412      9415      9408      9407      9411      9412
      9409      9407      9411      9412      9410      9407      9411      9412
      9411      9412      9415      9416      9411      9412      9415      9417
      9411      9412      9415      9423      9412      9415      9417      9418
      9412      9415      9423      9424      9412      9415      9423      9425
      9412      9415      9423      9426      9413      9412      9415      9416
      9413      9412      9415      9417      9413      9412      9415      9423
      9414      9412      9415      9416      9414      9412      9415      9417
      9414      9412      9415      9423      9415      9417      9418      9419
      9415      9417      9418      9420      9415      9423      9426      9427
      9416      9415      9417      9418      9416      9415      9423      9424
      9416      9415      9423      9425      9416      9415      9423      9426
      9417      9415      9423      9424      9417      9415      9423      9425
      9417      9415      9423      9426      9417      9418      9420      9421
      9417      9418      9420      9422      9417      9418      9420      9432
      9418      9417      9415      9423      9418      9420      9432      9433
      9418      9420      9432      9434      9418      9420      9432      9435
      9419      9418      9420      9421      9419      9418      9420      9422
      9419      9418      9420      9432      9420      9432      9435      9436
      9420      9432      9435      9437      9420      9432      9435      9438
      9421      9420      9432      9433      9421      9420      9432      9434
      9421      9420      9432      9435      9422      9420      9432      9433
      9422      9420      9432      9434      9422      9420      9432      9435
      9423      9426      9427      9428      9423      9426      9427      9429
      9424      9423      9426      9427      9425      9423      9426      9427
      9426      9427      9429      9430      9426      9427      9429      9431
      9426      9427      9429      9479      9427      9429      9479      9480
      9427      9429      9479      9481      9427      9429      9479      9482
      9428      9427      9429      9430      9428      9427      9429      9431
      9428      9427      9429      9479      9429      9479      9482      9483
      9429      9479      9482      9484      9429      9479      9482      9485
      9430      9429      9479      9480      9430      9429      9479      9481
      9430      9429      9479      9482      9431      9429      9479      9480
      9431      9429      9479      9481      9431      9429      9479      9482
      9432      9435      9438      9439      9432      9435      9438      9440
      9432      9435      9438      9441      9433      9432      9435      9436
      9433      9432      9435      9437      9433      9432      9435      9438
      9434      9432      9435      9436      9434      9432      9435      9437
      9434      9432      9435      9438      9435      9438      9441      9442
      9435      9438      9441      9443      9435      9438      9441      9444
      9436      9435      9438      9439      9436      9435      9438      9440
      9436      9435      9438      9441      9437      9435      9438      9439
      9437      9435      9438      9440      9437      9435      9438      9441
      9438      9441      9444      9445      9438      9441      9444      9446
      9438      9441      9444      9447      9439      9438      9441      9442
      9439      9438      9441      9443      9439      9438      9441      9444
      9440      9438      9441      9442      9440      9438      9441      9443
      9440      9438      9441      9444      9441      9444      9447      9448
      9441      9444      9447      9449      9441      9444      9447      9450
      9442      9441      9444      9445      9442      9441      9444      9446
      9442      9441      9444      9447      9443      9441      9444      9445
      9443      9441      9444      9446      9443      9441      9444      9447
      9444      9447      9450      9451      9444      9447      9450      9452
      9445      9444      9447      9448      9445      9444      9447      9449
      9445      9444      9447      9450      9446      9444      9447      9448
      9446      9444      9447      9449      9446      9444      9447      9450
      9447      9450      9452      9453      9447      9450      9452      9454
      9448      9447      9450      9451      9448      9447      9450      9452
      9449      9447      9450      9451      9449      9447      9450      9452
      9450      9452      9454      9455      9450      9452      9454      9456
      9450      9452      9454      9457      9451      9450      9452      9453
      9451      9450      9452      9454      9452      9454      9457      9458
      9452      9454      9457      9459      9452      9454      9457      9460
      9453      9452      9454      9455      9453      9452      9454      9456
      9453      9452      9454      9457      9454      9457      9460      9461
      9454      9457      9460      9462      9454      9457      9460      9463
      9455      9454      9457      9458      9455      9454      9457      9459
      9455      9454      9457      9460      9456      9454      9457      9458
      9456      9454      9457      9459      9456      9454      9457      9460
      9457      9460      9463      9464      9457      9460      9463      9465
      9457      9460      9463      9466      9458      9457      9460      9461
      9458      9457      9460      9462      9458      9457      9460      9463
      9459      9457      9460      9461      9459      9457      9460      9462
      9459      9457      9460      9463      9460      9463      9466      9467
      9460      9463      9466      9468      9460      9463      9466      9469
      9461      9460      9463      9464      9461      9460      9463      9465
      9461      9460      9463      9466      9462      9460      9463      9464
      9462      9460      9463      9465      9462      9460      9463      9466
      9463      9466      9469      9470      9463      9466      9469      9471
      9463      9466      9469      9472      9464      9463      9466      9467
      9464      9463      9466      9468      9464      9463      9466      9469
      9465      9463      9466      9467      9465      9463      9466      9468
      9465      9463      9466      9469      9466      9469      9472      9473
      9466      9469      9472      9474      9466      9469      9472      9475
      9467      9466      9469      9470      9467      9466      9469      9471
      9467      9466      9469      9472      9468      9466      9469      9470
      9468      9466      9469      9471      9468      9466      9469      9472
      9469      9472      9475      9476      9469      9472      9475      9477
      9469      9472      9475      9478      9470      9469      9472      9473
      9470      9469      9472      9474      9470      9469      9472      9475
      9471      9469      9472      9473      9471      9469      9472      9474
      9471      9469      9472      9475      9473      9472      9475      9476
      9473      9472      9475      9477      9473      9472      9475      9478
      9474      9472      9475      9476      9474      9472      9475      9477
      9474      9472      9475      9478      9479      9482      9485      9486
      9479      9482      9485      9487      9479      9482      9485      9488
      9480      9479      9482      9483      9480      9479      9482      9484
      9480      9479      9482      9485      9481      9479      9482      9483
      9481      9479      9482      9484      9481      9479      9482      9485
      9482      9485      9488      9489      9482      9485      9488      9490
      9482      9485      9488      9491      9483      9482      9485      9486
      9483      9482      9485      9487      9483      9482      9485      9488
      9484      9482      9485      9486      9484      9482      9485      9487
      9484      9482      9485      9488      9485      9488      9491      9492
      9485      9488      9491      9493      9485      9488      9491      9494
      9486      9485      9488      9489      9486      9485      9488      9490
      9486      9485      9488      9491      9487      9485      9488      9489
      9487      9485      9488      9490      9487      9485      9488      9491
      9488      9491      9494      9495      9488      9491      9494      9496
      9488      9491      9494      9497      9489      9488      9491      9492
      9489      9488      9491      9493      9489      9488      9491      9494
      9490      9488      9491      9492      9490      9488      9491      9493
      9490      9488      9491      9494      9491      9494      9497      9498
      9491      9494      9497      9499      9491      9494      9497      9500
      9492      9491      9494      9495      9492      9491      9494      9496
      9492      9491      9494      9497      9493      9491      9494      9495
      9493      9491      9494      9496      9493      9491      9494      9497
      9494      9497      9500      9501      9494      9497      9500      9502
      9494      9497      9500      9503      9495      9494      9497      9498
      9495      9494      9497      9499      9495      9494      9497      9500
      9496      9494      9497      9498      9496      9494      9497      9499
      9496      9494      9497      9500      9497      9500      9503      9504
      9497      9500      9503      9505      9497      9500      9503      9506
      9498      9497      9500      9501      9498      9497      9500      9502
      9498      9497      9500      9503      9499      9497      9500      9501
      9499      9497      9500      9502      9499      9497      9500      9503
      9500      9503      9506      9507      9500      9503      9506      9508
      9500      9503      9506      9509      9501      9500      9503      9504
      9501      9500      9503      9505      9501      9500      9503      9506
      9502      9500      9503      9504      9502      9500      9503      9505
      9502      9500      9503      9506      9503      9506      9509      9510
      9503      9506      9509      9511      9503      9506      9509      9512
      9504      9503      9506      9507      9504      9503      9506      9508
      9504      9503      9506      9509      9505      9503      9506      9507
      9505      9503      9506      9508      9505      9503      9506      9509
      9506      9509      9512      9513      9506      9509      9512      9514
      9506      9509      9512      9515      9507      9506      9509      9510
      9507      9506      9509      9511      9507      9506      9509      9512
      9508      9506      9509      9510      9508      9506      9509      9511
      9508      9506      9509      9512      9509      9512      9515      9516
      9509      9512      9515      9517      9509      9512      9515      9518
      9510      9509      9512      9513      9510      9509      9512      9514
      9510      9509      9512      9515      9511      9509      9512      9513
      9511      9509      9512      9514      9511      9509      9512      9515
      9512      9515      9518      9519      9512      9515      9518      9520
      9512      9515      9518      9521      9513      9512      9515      9516
      9513      9512      9515      9517      9513      9512      9515      9518
      9514      9512      9515      9516      9514      9512      9515      9517
      9514      9512      9515      9518      9516      9515      9518      9519
      9516      9515      9518      9520      9516      9515      9518      9521
      9517      9515      9518      9519      9517      9515      9518      9520
      9517      9515      9518      9521      9522      9523      9538      9539
      9522      9523      9538      9540      9522      9523      9538      9544
      9523      9522      9526      9527      9523      9522      9526      9528
      9523      9522      9526      9529      9523      9522      9530      9531
      9523      9522      9530      9532      9523      9522      9530      9533
      9523      9522      9534      9535      9523      9522      9534      9536
      9523      9522      9534      9537      9523      9538      9544      9541
      9524      9523      9522      9526      9524      9523      9522      9530
      9524      9523      9522      9534      9524      9523      9538      9539
      9524      9523      9538      9540      9524      9523      9538      9544
      9525      9523      9522      9526      9525      9523      9522      9530
      9525      9523      9522      9534      9525      9523      9538      9539
      9525      9523      9538      9540      9525      9523      9538      9544
      9526      9522      9523      9538      9526      9522      9530      9531
      9526      9522      9530      9532      9526      9522      9530      9533
      9526      9522      9534      9535      9526      9522      9534      9536
      9526      9522      9534      9537      9527      9526      9522      9530
      9527      9526      9522      9534      9528      9526      9522      9530
      9528      9526      9522      9534      9529      9526      9522      9530
      9529      9526      9522      9534      9530      9522      9523      9538
      9530      9522      9534      9535      9530      9522      9534      9536
      9530      9522      9534      9537      9531      9530      9522      9534
      9532      9530      9522      9534      9533      9530      9522      9534
      9534      9522      9523      9538      9538      9544      9541      9542
      9538      9544      9541      9543      9538      9544      9541      9545
      9539      9538      9544      9541      9540      9538      9544      9541
      9541      9545      9546      9547      9541      9545      9546      9548
      9541      9545      9546      9549      9542      9541      9545      9546
      9543      9541      9545      9546      9544      9541      9545      9546
      9545      9546      9549      9550      9545      9546      9549      9551
      9545      9546      9549      9557      9546      9549      9551      9552
      9546      9549      9557      9558      9546      9549      9557      9559
      9546      9549      9557      9560      9547      9546      9549      9550
      9547      9546      9549      9551      9547      9546      9549      9557
      9548      9546      9549      9550      9548      9546      9549      9551
      9548      9546      9549      9557      9549      9551      9552      9553
      9549      9551      9552      9554      9549      9557      9560      9561
      9550      9549      9551      9552      9550      9549      9557      9558
      9550      9549      9557      9559      9550      9549      9557      9560
      9551      9549      9557      9558      9551      9549      9557      9559
      9551      9549      9557      9560      9551      9552      9554      9555
      9551      9552      9554      9556      9551      9552      9554      9566
      9552      9551      9549      9557      9552      9554      9566      9567
      9552      9554      9566      9568      9552      9554      9566      9569
      9553      9552      9554      9555      9553      9552      9554      9556
      9553      9552      9554      9566      9554      9566      9569      9570
      9554      9566      9569      9571      9554      9566      9569      9572
      9555      9554      9566      9567      9555      9554      9566      9568
      9555      9554      9566      9569      9556      9554      9566      9567
      9556      9554      9566      9568      9556      9554      9566      9569
      9557      9560      9561      9562      9557      9560      9561      9563
      9558      9557      9560      9561      9559      9557      9560      9561
      9560      9561      9563      9564      9560      9561      9563      9565
      9560      9561      9563      9613      9561      9563      9613      9614
      9561      9563      9613      9615      9561      9563      9613      9616
      9562      9561      9563      9564      9562      9561      9563      9565
      9562      9561      9563      9613      9563      9613      9616      9617
      9563      9613      9616      9618      9563      9613      9616      9619
      9564      9563      9613      9614      9564      9563      9613      9615
      9564      9563      9613      9616      9565      9563      9613      9614
      9565      9563      9613      9615      9565      9563      9613      9616
      9566      9569      9572      9573      9566      9569      9572      9574
      9566      9569      9572      9575      9567      9566      9569      9570
      9567      9566      9569      9571      9567      9566      9569      9572
      9568      9566      9569      9570      9568      9566      9569      9571
      9568      9566      9569      9572      9569      9572      9575      9576
      9569      9572      9575      9577      9569      9572      9575      9578
      9570      9569      9572      9573      9570      9569      9572      9574
      9570      9569      9572      9575      9571      9569      9572      9573
      9571      9569      9572      9574      9571      9569      9572      9575
      9572      9575      9578      9579      9572      9575      9578      9580
      9572      9575      9578      9581      9573      9572      9575      9576
      9573      9572      9575      9577      9573      9572      9575      9578
      9574      9572      9575      9576      9574      9572      9575      9577
      9574      9572      9575      9578      9575      9578      9581      9582
      9575      9578      9581      9583      9575      9578      9581      9584
      9576      9575      9578      9579      9576      9575      9578      9580
      9576      9575      9578      9581      9577      9575      9578      9579
      9577      9575      9578      9580      9577      9575      9578      9581
      9578      9581      9584      9585      9578      9581      9584      9586
      9579      9578      9581      9582      9579      9578      9581      9583
      9579      9578      9581      9584      9580      9578      9581      9582
      9580      9578      9581      9583      9580      9578      9581      9584
      9581      9584      9586      9587      9581      9584      9586      9588
      9582      9581      9584      9585      9582      9581      9584      9586
      9583      9581      9584      9585      9583      9581      9584      9586
      9584      9586      9588      9589      9584      9586      9588      9590
      9584      9586      9588      9591      9585      9584      9586      9587
      9585      9584      9586      9588      9586      9588      9591      9592
      9586      9588      9591      9593      9586      9588      9591      9594
      9587      9586      9588      9589      9587      9586      9588      9590
      9587      9586      9588      9591      9588      9591      9594      9595
      9588      9591      9594      9596      9588      9591      9594      9597
      9589      9588      9591      9592      9589      9588      9591      9593
      9589      9588      9591      9594      9590      9588      9591      9592
      9590      9588      9591      9593      9590      9588      9591      9594
      9591      9594      9597      9598      9591      9594      9597      9599
      9591      9594      9597      9600      9592      9591      9594      9595
      9592      9591      9594      9596      9592      9591      9594      9597
      9593      9591      9594      9595      9593      9591      9594      9596
      9593      9591      9594      9597      9594      9597      9600      9601
      9594      9597      9600      9602      9594      9597      9600      9603
      9595      9594      9597      9598      9595      9594      9597      9599
      9595      9594      9597      9600      9596      9594      9597      9598
      9596      9594      9597      9599      9596      9594      9597      9600
      9597      9600      9603      9604      9597      9600      9603      9605
      9597      9600      9603      9606      9598      9597      9600      9601
      9598      9597      9600      9602      9598      9597      9600      9603
      9599      9597      9600      9601      9599      9597      9600      9602
      9599      9597      9600      9603      9600      9603      9606      9607
      9600      9603      9606      9608      9600      9603      9606      9609
      9601      9600      9603      9604      9601      9600      9603      9605
      9601      9600      9603      9606      9602      9600      9603      9604
      9602      9600      9603      9605      9602      9600      9603      9606
      9603      9606      9609      9610      9603      9606      9609      9611
      9603      9606      9609      9612      9604      9603      9606      9607
      9604      9603      9606      9608      9604      9603      9606      9609
      9605      9603      9606      9607      9605      9603      9606      9608
      9605      9603      9606      9609      9607      9606      9609      9610
      9607      9606      9609      9611      9607      9606      9609      9612
      9608      9606      9609      9610      9608      9606      9609      9611
      9608      9606      9609      9612      9613      9616      9619      9620
      9613      9616      9619      9621      9613      9616      9619      9622
      9614      9613      9616      9617      9614      9613      9616      9618
      9614      9613      9616      9619      9615      9613      9616      9617
      9615      9613      9616      9618      9615      9613      9616      9619
      9616      9619      9622      9623      9616      9619      9622      9624
      9616      9619      9622      9625      9617      9616      9619      9620
      9617      9616      9619      9621      9617      9616      9619      9622
      9618      9616      9619      9620      9618      9616      9619      9621
      9618      9616      9619      9622      9619      9622      9625      9626
      9619      9622      9625      9627      9619      9622      9625      9628
      9620      9619      9622      9623      9620      9619      9622      9624
      9620      9619      9622      9625      9621      9619      9622      9623
      9621      9619      9622      9624      9621      9619      9622      9625
      9622      9625      9628      9629      9622      9625      9628      9630
      9622      9625      9628      9631      9623      9622      9625      9626
      9623      9622      9625      9627      9623      9622      9625      9628
      9624      9622      9625      9626      9624      9622      9625      9627
      9624      9622      9625      9628      9625      9628      9631      9632
      9625      9628      9631      9633      9625      9628      9631      9634
      9626      9625      9628      9629      9626      9625      9628      9630
      9626      9625      9628      9631      9627      9625      9628      9629
      9627      9625      9628      9630      9627      9625      9628      9631
      9628      9631      9634      9635      9628      9631      9634      9636
      9628      9631      9634      9637      9629      9628      9631      9632
      9629      9628      9631      9633      9629      9628      9631      9634
      9630      9628      9631      9632      9630      9628      9631      9633
      9630      9628      9631      9634      9631      9634      9637      9638
      9631      9634      9637      9639      9631      9634      9637      9640
      9632      9631      9634      9635      9632      9631      9634      9636
      9632      9631      9634      9637      9633      9631      9634      9635
      9633      9631      9634      9636      9633      9631      9634      9637
      9634      9637      9640      9641      9634      9637      9640      9642
      9634      9637      9640      9643      9635      9634      9637      9638
      9635      9634      9637      9639      9635      9634      9637      9640
      9636      9634      9637      9638      9636      9634      9637      9639
      9636      9634      9637      9640      9637      9640      9643      9644
      9637      9640      9643      9645      9637      9640      9643      9646
      9638      9637      9640      9641      9638      9637      9640      9642
      9638      9637      9640      9643      9639      9637      9640      9641
      9639      9637      9640      9642      9639      9637      9640      9643
      9640      9643      9646      9647      9640      9643      9646      9648
      9640      9643      9646      9649      9641      9640      9643      9644
      9641      9640      9643      9645      9641      9640      9643      9646
      9642      9640      9643      9644      9642      9640      9643      9645
      9642      9640      9643      9646      9643      9646      9649      9650
      9643      9646      9649      9651      9643      9646      9649      9652
      9644      9643      9646      9647      9644      9643      9646      9648
      9644      9643      9646      9649      9645      9643      9646      9647
      9645      9643      9646      9648      9645      9643      9646      9649
      9646      9649      9652      9653      9646      9649      9652      9654
      9646      9649      9652      9655      9647      9646      9649      9650
      9647      9646      9649      9651      9647      9646      9649      9652
      9648      9646      9649      9650      9648      9646      9649      9651
      9648      9646      9649      9652      9650      9649      9652      9653
      9650      9649      9652      9654      9650      9649      9652      9655
      9651      9649      9652      9653      9651      9649      9652      9654
      9651      9649      9652      9655      9656      9657      9672      9673
      9656      9657      9672      9674      9656      9657      9672      9678
      9657      9656      9660      9661      9657      9656      9660      9662
      9657      9656      9660      9663      9657      9656      9664      9665
      9657      9656      9664      9666      9657      9656      9664      9667
      9657      9656      9668      9669      9657      9656      9668      9670
      9657      9656      9668      9671      9657      9672      9678      9675
      9658      9657      9656      9660      9658      9657      9656      9664
      9658      9657      9656      9668      9658      9657      9672      9673
      9658      9657      9672      9674      9658      9657      9672      9678
      9659      9657      9656      9660      9659      9657      9656      9664
      9659      9657      9656      9668      9659      9657      9672      9673
      9659      9657      9672      9674      9659      9657      9672      9678
      9660      9656      9657      9672      9660      9656      9664      9665
      9660      9656      9664      9666      9660      9656      9664      9667
      9660      9656      9668      9669      9660      9656      9668      9670
      9660      9656      9668      9671      9661      9660      9656      9664
      9661      9660      9656      9668      9662      9660      9656      9664
      9662      9660      9656      9668      9663      9660      9656      9664
      9663      9660      9656      9668      9664      9656      9657      9672
      9664      9656      9668      9669      9664      9656      9668      9670
      9664      9656      9668      9671      9665      9664      9656      9668
      9666      9664      9656      9668      9667      9664      9656      9668
      9668      9656      9657      9672      9672      9678      9675      9676
      9672      9678      9675      9677      9672      9678      9675      9679
      9673      9672      9678      9675      9674      9672      9678      9675
      9675      9679      9680      9681      9675      9679      9680      9682
      9675      9679      9680      9683      9676      9675      9679      9680
      9677      9675      9679      9680      9678      9675      9679      9680
      9679      9680      9683      9684      9679      9680      9683      9685
      9679      9680      9683      9691      9680      9683      9685      9686
      9680      9683      9691      9692      9680      9683      9691      9693
      9680      9683      9691      9694      9681      9680      9683      9684
      9681      9680      9683      9685      9681      9680      9683      9691
      9682      9680      9683      9684      9682      9680      9683      9685
      9682      9680      9683      9691      9683      9685      9686      9687
      9683      9685      9686      9688      9683      9691      9694      9695
      9684      9683      9685      9686      9684      9683      9691      9692
      9684      9683      9691      9693      9684      9683      9691      9694
      9685      9683      9691      9692      9685      9683      9691      9693
      9685      9683      9691      9694      9685      9686      9688      9689
      9685      9686      9688      9690      9685      9686      9688      9700
      9686      9685      9683      9691      9686      9688      9700      9701
      9686      9688      9700      9702      9686      9688      9700      9703
      9687      9686      9688      9689      9687      9686      9688      9690
      9687      9686      9688      9700      9688      9700      9703      9704
      9688      9700      9703      9705      9688      9700      9703      9706
      9689      9688      9700      9701      9689      9688      9700      9702
      9689      9688      9700      9703      9690      9688      9700      9701
      9690      9688      9700      9702      9690      9688      9700      9703
      9691      9694      9695      9696      9691      9694      9695      9697
      9692      9691      9694      9695      9693      9691      9694      9695
      9694      9695      9697      9698      9694      9695      9697      9699
      9694      9695      9697      9747      9695      9697      9747      9748
      9695      9697      9747      9749      9695      9697      9747      9750
      9696      9695      9697      9698      9696      9695      9697      9699
      9696      9695      9697      9747      9697      9747      9750      9751
      9697      9747      9750      9752      9697      9747      9750      9753
      9698      9697      9747      9748      9698      9697      9747      9749
      9698      9697      9747      9750      9699      9697      9747      9748
      9699      9697      9747      9749      9699      9697      9747      9750
      9700      9703      9706      9707      9700      9703      9706      9708
      9700      9703      9706      9709      9701      9700      9703      9704
      9701      9700      9703      9705      9701      9700      9703      9706
      9702      9700      9703      9704      9702      9700      9703      9705
      9702      9700      9703      9706      9703      9706      9709      9710
      9703      9706      9709      9711      9703      9706      9709      9712
      9704      9703      9706      9707      9704      9703      9706      9708
      9704      9703      9706      9709      9705      9703      9706      9707
      9705      9703      9706      9708      9705      9703      9706      9709
      9706      9709      9712      9713      9706      9709      9712      9714
      9706      9709      9712      9715      9707      9706      9709      9710
      9707      9706      9709      9711      9707      9706      9709      9712
      9708      9706      9709      9710      9708      9706      9709      9711
      9708      9706      9709      9712      9709      9712      9715      9716
      9709      9712      9715      9717      9709      9712      9715      9718
      9710      9709      9712      9713      9710      9709      9712      9714
      9710      9709      9712      9715      9711      9709      9712      9713
      9711      9709      9712      9714      9711      9709      9712      9715
      9712      9715      9718      9719      9712      9715      9718      9720
      9713      9712      9715      9716      9713      9712      9715      9717
      9713      9712      9715      9718      9714      9712      9715      9716
      9714      9712      9715      9717      9714      9712      9715      9718
      9715      9718      9720      9721      9715      9718      9720      9722
      9716      9715      9718      9719      9716      9715      9718      9720
      9717      9715      9718      9719      9717      9715      9718      9720
      9718      9720      9722      9723      9718      9720      9722      9724
      9718      9720      9722      9725      9719      9718      9720      9721
      9719      9718      9720      9722      9720      9722      9725      9726
      9720      9722      9725      9727      9720      9722      9725      9728
      9721      9720      9722      9723      9721      9720      9722      9724
      9721      9720      9722      9725      9722      9725      9728      9729
      9722      9725      9728      9730      9722      9725      9728      9731
      9723      9722      9725      9726      9723      9722      9725      9727
      9723      9722      9725      9728      9724      9722      9725      9726
      9724      9722      9725      9727      9724      9722      9725      9728
      9725      9728      9731      9732      9725      9728      9731      9733
      9725      9728      9731      9734      9726      9725      9728      9729
      9726      9725      9728      9730      9726      9725      9728      9731
      9727      9725      9728      9729      9727      9725      9728      9730
      9727      9725      9728      9731      9728      9731      9734      9735
      9728      9731      9734      9736      9728      9731      9734      9737
      9729      9728      9731      9732      9729      9728      9731      9733
      9729      9728      9731      9734      9730      9728      9731      9732
      9730      9728      9731      9733      9730      9728      9731      9734
      9731      9734      9737      9738      9731      9734      9737      9739
      9731      9734      9737      9740      9732      9731      9734      9735
      9732      9731      9734      9736      9732      9731      9734      9737
      9733      9731      9734      9735      9733      9731      9734      9736
      9733      9731      9734      9737      9734      9737      9740      9741
      9734      9737      9740      9742      9734      9737      9740      9743
      9735      9734      9737      9738      9735      9734      9737      9739
      9735      9734      9737      9740      9736      9734      9737      9738
      9736      9734      9737      9739      9736      9734      9737      9740
      9737      9740      9743      9744      9737      9740      9743      9745
      9737      9740      9743      9746      9738      9737      9740      9741
      9738      9737      9740      9742      9738      9737      9740      9743
      9739      9737      9740      9741      9739      9737      9740      9742
      9739      9737      9740      9743      9741      9740      9743      9744
      9741      9740      9743      9745      9741      9740      9743      9746
      9742      9740      9743      9744      9742      9740      9743      9745
      9742      9740      9743      9746      9747      9750      9753      9754
      9747      9750      9753      9755      9747      9750      9753      9756
      9748      9747      9750      9751      9748      9747      9750      9752
      9748      9747      9750      9753      9749      9747      9750      9751
      9749      9747      9750      9752      9749      9747      9750      9753
      9750      9753      9756      9757      9750      9753      9756      9758
      9750      9753      9756      9759      9751      9750      9753      9754
      9751      9750      9753      9755      9751      9750      9753      9756
      9752      9750      9753      9754      9752      9750      9753      9755
      9752      9750      9753      9756      9753      9756      9759      9760
      9753      9756      9759      9761      9753      9756      9759      9762
      9754      9753      9756      9757      9754      9753      9756      9758
      9754      9753      9756      9759      9755      9753      9756      9757
      9755      9753      9756      9758      9755      9753      9756      9759
      9756      9759      9762      9763      9756      9759      9762      9764
      9756      9759      9762      9765      9757      9756      9759      9760
      9757      9756      9759      9761      9757      9756      9759      9762
      9758      9756      9759      9760      9758      9756      9759      9761
      9758      9756      9759      9762      9759      9762      9765      9766
      9759      9762      9765      9767      9759      9762      9765      9768
      9760      9759      9762      9763      9760      9759      9762      9764
      9760      9759      9762      9765      9761      9759      9762      9763
      9761      9759      9762      9764      9761      9759      9762      9765
      9762      9765      9768      9769      9762      9765      9768      9770
      9762      9765      9768      9771      9763      9762      9765      9766
      9763      9762      9765      9767      9763      9762      9765      9768
      9764      9762      9765      9766      9764      9762      9765      9767
      9764      9762      9765      9768      9765      9768      9771      9772
      9765      9768      9771      9773      9765      9768      9771      9774
      9766      9765      9768      9769      9766      9765      9768      9770
      9766      9765      9768      9771      9767      9765      9768      9769
      9767      9765      9768      9770      9767      9765      9768      9771
      9768      9771      9774      9775      9768      9771      9774      9776
      9768      9771      9774      9777      9769      9768      9771      9772
      9769      9768      9771      9773      9769      9768      9771      9774
      9770      9768      9771      9772      9770      9768      9771      9773
      9770      9768      9771      9774      9771      9774      9777      9778
      9771      9774      9777      9779      9771      9774      9777      9780
      9772      9771      9774      9775      9772      9771      9774      9776
      9772      9771      9774      9777      9773      9771      9774      9775
      9773      9771      9774      9776      9773      9771      9774      9777
      9774      9777      9780      9781      9774      9777      9780      9782
      9774      9777      9780      9783      9775      9774      9777      9778
      9775      9774      9777      9779      9775      9774      9777      9780
      9776      9774      9777      9778      9776      9774      9777      9779
      9776      9774      9777      9780      9777      9780      9783      9784
      9777      9780      9783      9785      9777      9780      9783      9786
      9778      9777      9780      9781      9778      9777      9780      9782
      9778      9777      9780      9783      9779      9777      9780      9781
      9779      9777      9780      9782      9779      9777      9780      9783
      9780      9783      9786      9787      9780      9783      9786      9788
      9780      9783      9786      9789      9781      9780      9783      9784
      9781      9780      9783      9785      9781      9780      9783      9786
      9782      9780      9783      9784      9782      9780      9783      9785
      9782      9780      9783      9786      9784      9783      9786      9787
      9784      9783      9786      9788      9784      9783      9786      9789
      9785      9783      9786      9787      9785      9783      9786      9788
      9785      9783      9786      9789      9790      9791      9806      9807
      9790      9791      9806      9808      9790      9791      9806      9812
      9791      9790      9794      9795      9791      9790      9794      9796
      9791      9790      9794      9797      9791      9790      9798      9799
      9791      9790      9798      9800      9791      9790      9798      9801
      9791      9790      9802      9803      9791      9790      9802      9804
      9791      9790      9802      9805      9791      9806      9812      9809
      9792      9791      9790      9794      9792      9791      9790      9798
      9792      9791      9790      9802      9792      9791      9806      9807
      9792      9791      9806      9808      9792      9791      9806      9812
      9793      9791      9790      9794      9793      9791      9790      9798
      9793      9791      9790      9802      9793      9791      9806      9807
      9793      9791      9806      9808      9793      9791      9806      9812
      9794      9790      9791      9806      9794      9790      9798      9799
      9794      9790      9798      9800      9794      9790      9798      9801
      9794      9790      9802      9803      9794      9790      9802      9804
      9794      9790      9802      9805      9795      9794      9790      9798
      9795      9794      9790      9802      9796      9794      9790      9798
      9796      9794      9790      9802      9797      9794      9790      9798
      9797      9794      9790      9802      9798      9790      9791      9806
      9798      9790      9802      9803      9798      9790      9802      9804
      9798      9790      9802      9805      9799      9798      9790      9802
      9800      9798      9790      9802      9801      9798      9790      9802
      9802      9790      9791      9806      9806      9812      9809      9810
      9806      9812      9809      9811      9806      9812      9809      9813
      9807      9806      9812      9809      9808      9806      9812      9809
      9809      9813      9814      9815      9809      9813      9814      9816
      9809      9813      9814      9817      9810      9809      9813      9814
      9811      9809      9813      9814      9812      9809      9813      9814
      9813      9814      9817      9818      9813      9814      9817      9819
      9813      9814      9817      9825      9814      9817      9819      9820
      9814      9817      9825      9826      9814      9817      9825      9827
      9814      9817      9825      9828      9815      9814      9817      9818
      9815      9814      9817      9819      9815      9814      9817      9825
      9816      9814      9817      9818      9816      9814      9817      9819
      9816      9814      9817      9825      9817      9819      9820      9821
      9817      9819      9820      9822      9817      9825      9828      9829
      9818      9817      9819      9820      9818      9817      9825      9826
      9818      9817      9825      9827      9818      9817      9825      9828
      9819      9817      9825      9826      9819      9817      9825      9827
      9819      9817      9825      9828      9819      9820      9822      9823
      9819      9820      9822      9824      9819      9820      9822      9834
      9820      9819      9817      9825      9820      9822      9834      9835
      9820      9822      9834      9836      9820      9822      9834      9837
      9821      9820      9822      9823      9821      9820      9822      9824
      9821      9820      9822      9834      9822      9834      9837      9838
      9822      9834      9837      9839      9822      9834      9837      9840
      9823      9822      9834      9835      9823      9822      9834      9836
      9823      9822      9834      9837      9824      9822      9834      9835
      9824      9822      9834      9836      9824      9822      9834      9837
      9825      9828      9829      9830      9825      9828      9829      9831
      9826      9825      9828      9829      9827      9825      9828      9829
      9828      9829      9831      9832      9828      9829      9831      9833
      9828      9829      9831      9881      9829      9831      9881      9882
      9829      9831      9881      9883      9829      9831      9881      9884
      9830      9829      9831      9832      9830      9829      9831      9833
      9830      9829      9831      9881      9831      9881      9884      9885
      9831      9881      9884      9886      9831      9881      9884      9887
      9832      9831      9881      9882      9832      9831      9881      9883
      9832      9831      9881      9884      9833      9831      9881      9882
      9833      9831      9881      9883      9833      9831      9881      9884
      9834      9837      9840      9841      9834      9837      9840      9842
      9834      9837      9840      9843      9835      9834      9837      9838
      9835      9834      9837      9839      9835      9834      9837      9840
      9836      9834      9837      9838      9836      9834      9837      9839
      9836      9834      9837      9840      9837      9840      9843      9844
      9837      9840      9843      9845      9837      9840      9843      9846
      9838      9837      9840      9841      9838      9837      9840      9842
      9838      9837      9840      9843      9839      9837      9840      9841
      9839      9837      9840      9842      9839      9837      9840      9843
      9840      9843      9846      9847      9840      9843      9846      9848
      9840      9843      9846      9849      9841      9840      9843      9844
      9841      9840      9843      9845      9841      9840      9843      9846
      9842      9840      9843      9844      9842      9840      9843      9845
      9842      9840      9843      9846      9843      9846      9849      9850
      9843      9846      9849      9851      9843      9846      9849      9852
      9844      9843      9846      9847      9844      9843      9846      9848
      9844      9843      9846      9849      9845      9843      9846      9847
      9845      9843      9846      9848      9845      9843      9846      9849
      9846      9849      9852      9853      9846      9849      9852      9854
      9847      9846      9849      9850      9847      9846      9849      9851
      9847      9846      9849      9852      9848      9846      9849      9850
      9848      9846      9849      9851      9848      9846      9849      9852
      9849      9852      9854      9855      9849      9852      9854      9856
      9850      9849      9852      9853      9850      9849      9852      9854
      9851      9849      9852      9853      9851      9849      9852      9854
      9852      9854      9856      9857      9852      9854      9856      9858
      9852      9854      9856      9859      9853      9852      9854      9855
      9853      9852      9854      9856      9854      9856      9859      9860
      9854      9856      9859      9861      9854      9856      9859      9862
      9855      9854      9856      9857      9855      9854      9856      9858
      9855      9854      9856      9859      9856      9859      9862      9863
      9856      9859      9862      9864      9856      9859      9862      9865
      9857      9856      9859      9860      9857      9856      9859      9861
      9857      9856      9859      9862      9858      9856      9859      9860
      9858      9856      9859      9861      9858      9856      9859      9862
      9859      9862      9865      9866      9859      9862      9865      9867
      9859      9862      9865      9868      9860      9859      9862      9863
      9860      9859      9862      9864      9860      9859      9862      9865
      9861      9859      9862      9863      9861      9859      9862      9864
      9861      9859      9862      9865      9862      9865      9868      9869
      9862      9865      9868      9870      9862      9865      9868      9871
      9863      9862      9865      9866      9863      9862      9865      9867
      9863      9862      9865      9868      9864      9862      9865      9866
      9864      9862      9865      9867      9864      9862      9865      9868
      9865      9868      9871      9872      9865      9868      9871      9873
      9865      9868      9871      9874      9866      9865      9868      9869
      9866      9865      9868      9870      9866      9865      9868      9871
      9867      9865      9868      9869      9867      9865      9868      9870
      9867      9865      9868      9871      9868      9871      9874      9875
      9868      9871      9874      9876      9868      9871      9874      9877
      9869      9868      9871      9872      9869      9868      9871      9873
      9869      9868      9871      9874      9870      9868      9871      9872
      9870      9868      9871      9873      9870      9868      9871      9874
      9871      9874      9877      9878      9871      9874      9877      9879
      9871      9874      9877      9880      9872      9871      9874      9875
      9872      9871      9874      9876      9872      9871      9874      9877
      9873      9871      9874      9875      9873      9871      9874      9876
      9873      9871      9874      9877      9875      9874      9877      9878
      9875      9874      9877      9879      9875      9874      9877      9880
      9876      9874      9877      9878      9876      9874      9877      9879
      9876      9874      9877      9880      9881      9884      9887      9888
      9881      9884      9887      9889      9881      9884      9887      9890
      9882      9881      9884      9885      9882      9881      9884      9886
      9882      9881      9884      9887      9883      9881      9884      9885
      9883      9881      9884      9886      9883      9881      9884      9887
      9884      9887      9890      9891      9884      9887      9890      9892
      9884      9887      9890      9893      9885      9884      9887      9888
      9885      9884      9887      9889      9885      9884      9887      9890
      9886      9884      9887      9888      9886      9884      9887      9889
      9886      9884      9887      9890      9887      9890      9893      9894
      9887      9890      9893      9895      9887      9890      9893      9896
      9888      9887      9890      9891      9888      9887      9890      9892
      9888      9887      9890      9893      9889      9887      9890      9891
      9889      9887      9890      9892      9889      9887      9890      9893
      9890      9893      9896      9897      9890      9893      9896      9898
      9890      9893      9896      9899      9891      9890      9893      9894
      9891      9890      9893      9895      9891      9890      9893      9896
      9892      9890      9893      9894      9892      9890      9893      9895
      9892      9890      9893      9896      9893      9896      9899      9900
      9893      9896      9899      9901      9893      9896      9899      9902
      9894      9893      9896      9897      9894      9893      9896      9898
      9894      9893      9896      9899      9895      9893      9896      9897
      9895      9893      9896      9898      9895      9893      9896      9899
      9896      9899      9902      9903      9896      9899      9902      9904
      9896      9899      9902      9905      9897      9896      9899      9900
      9897      9896      9899      9901      9897      9896      9899      9902
      9898      9896      9899      9900      9898      9896      9899      9901
      9898      9896      9899      9902      9899      9902      9905      9906
      9899      9902      9905      9907      9899      9902      9905      9908
      9900      9899      9902      9903      9900      9899      9902      9904
      9900      9899      9902      9905      9901      9899      9902      9903
      9901      9899      9902      9904      9901      9899      9902      9905
      9902      9905      9908      9909      9902      9905      9908      9910
      9902      9905      9908      9911      9903      9902      9905      9906
      9903      9902      9905      9907      9903      9902      9905      9908
      9904      9902      9905      9906      9904      9902      9905      9907
      9904      9902      9905      9908      9905      9908      9911      9912
      9905      9908      9911      9913      9905      9908      9911      9914
      9906      9905      9908      9909      9906      9905      9908      9910
      9906      9905      9908      9911      9907      9905      9908      9909
      9907      9905      9908      9910      9907      9905      9908      9911
      9908      9911      9914      9915      9908      9911      9914      9916
      9908      9911      9914      9917      9909      9908      9911      9912
      9909      9908      9911      9913      9909      9908      9911      9914
      9910      9908      9911      9912      9910      9908      9911      9913
      9910      9908      9911      9914      9911      9914      9917      9918
      9911      9914      9917      9919      9911      9914      9917      9920
      9912      9911      9914      9915      9912      9911      9914      9916
      9912      9911      9914      9917      9913      9911      9914      9915
      9913      9911      9914      9916      9913      9911      9914      9917
      9914      9917      9920      9921      9914      9917      9920      9922
      9914      9917      9920      9923      9915      9914      9917      9918
      9915      9914      9917      9919      9915      9914      9917      9920
      9916      9914      9917      9918      9916      9914      9917      9919
      9916      9914      9917      9920      9918      9917      9920      9921
      9918      9917      9920      9922      9918      9917      9920      9923
      9919      9917      9920      9921      9919      9917      9920      9922
      9919      9917      9920      9923      9924      9925      9940      9941
      9924      9925      9940      9942      9924      9925      9940      9946
      9925      9924      9928      9929      9925      9924      9928      9930
      9925      9924      9928      9931      9925      9924      9932      9933
      9925      9924      9932      9934      9925      9924      9932      9935
      9925      9924      9936      9937      9925      9924      9936      9938
      9925      9924      9936      9939      9925      9940      9946      9943
      9926      9925      9924      9928      9926      9925      9924      9932
      9926      9925      9924      9936      9926      9925      9940      9941
      9926      9925      9940      9942      9926      9925      9940      9946
      9927      9925      9924      9928      9927      9925      9924      9932
      9927      9925      9924      9936      9927      9925      9940      9941
      9927      9925      9940      9942      9927      9925      9940      9946
      9928      9924      9925      9940      9928      9924      9932      9933
      9928      9924      9932      9934      9928      9924      9932      9935
      9928      9924      9936      9937      9928      9924      9936      9938
      9928      9924      9936      9939      9929      9928      9924      9932
      9929      9928      9924      9936      9930      9928      9924      9932
      9930      9928      9924      9936      9931      9928      9924      9932
      9931      9928      9924      9936      9932      9924      9925      9940
      9932      9924      9936      9937      9932      9924      9936      9938
      9932      9924      9936      9939      9933      9932      9924      9936
      9934      9932      9924      9936      9935      9932      9924      9936
      9936      9924      9925      9940      9940      9946      9943      9944
      9940      9946      9943      9945      9940      9946      9943      9947
      9941      9940      9946      9943      9942      9940      9946      9943
      9943      9947      9948      9949      9943      9947      9948      9950
      9943      9947      9948      9951      9944      9943      9947      9948
      9945      9943      9947      9948      9946      9943      9947      9948
      9947      9948      9951      9952      9947      9948      9951      9953
      9947      9948      9951      9959      9948      9951      9953      9954
      9948      9951      9959      9960      9948      9951      9959      9961
      9948      9951      9959      9962      9949      9948      9951      9952
      9949      9948      9951      9953      9949      9948      9951      9959
      9950      9948      9951      9952      9950      9948      9951      9953
      9950      9948      9951      9959      9951      9953      9954      9955
      9951      9953      9954      9956      9951      9959      9962      9963
      9952      9951      9953      9954      9952      9951      9959      9960
      9952      9951      9959      9961      9952      9951      9959      9962
      9953      9951      9959      9960      9953      9951      9959      9961
      9953      9951      9959      9962      9953      9954      9956      9957
      9953      9954      9956      9958      9953      9954      9956      9968
      9954      9953      9951      9959      9954      9956      9968      9969
      9954      9956      9968      9970      9954      9956      9968      9971
      9955      9954      9956      9957      9955      9954      9956      9958
      9955      9954      9956      9968      9956      9968      9971      9972
      9956      9968      9971      9973      9956      9968      9971      9974
      9957      9956      9968      9969      9957      9956      9968      9970
      9957      9956      9968      9971      9958      9956      9968      9969
      9958      9956      9968      9970      9958      9956      9968      9971
      9959      9962      9963      9964      9959      9962      9963      9965
      9960      9959      9962      9963      9961      9959      9962      9963
      9962      9963      9965      9966      9962      9963      9965      9967
      9962      9963      9965     10015      9963      9965     10015     10016
      9963      9965     10015     10017      9963      9965     10015     10018
      9964      9963      9965      9966      9964      9963      9965      9967
      9964      9963      9965     10015      9965     10015     10018     10019
      9965     10015     10018     10020      9965     10015     10018     10021
      9966      9965     10015     10016      9966      9965     10015     10017
      9966      9965     10015     10018      9967      9965     10015     10016
      9967      9965     10015     10017      9967      9965     10015     10018
      9968      9971      9974      9975      9968      9971      9974      9976
      9968      9971      9974      9977      9969      9968      9971      9972
      9969      9968      9971      9973      9969      9968      9971      9974
      9970      9968      9971      9972      9970      9968      9971      9973
      9970      9968      9971      9974      9971      9974      9977      9978
      9971      9974      9977      9979      9971      9974      9977      9980
      9972      9971      9974      9975      9972      9971      9974      9976
      9972      9971      9974      9977      9973      9971      9974      9975
      9973      9971      9974      9976      9973      9971      9974      9977
      9974      9977      9980      9981      9974      9977      9980      9982
      9974      9977      9980      9983      9975      9974      9977      9978
      9975      9974      9977      9979      9975      9974      9977      9980
      9976      9974      9977      9978      9976      9974      9977      9979
      9976      9974      9977      9980      9977      9980      9983      9984
      9977      9980      9983      9985      9977      9980      9983      9986
      9978      9977      9980      9981      9978      9977      9980      9982
      9978      9977      9980      9983      9979      9977      9980      9981
      9979      9977      9980      9982      9979      9977      9980      9983
      9980      9983      9986      9987      9980      9983      9986      9988
      9981      9980      9983      9984      9981      9980      9983      9985
      9981      9980      9983      9986      9982      9980      9983      9984
      9982      9980      9983      9985      9982      9980      9983      9986
      9983      9986      9988      9989      9983      9986      9988      9990
      9984      9983      9986      9987      9984      9983      9986      9988
      9985      9983      9986      9987      9985      9983      9986      9988
      9986      9988      9990      9991      9986      9988      9990      9992
      9986      9988      9990      9993      9987      9986      9988      9989
      9987      9986      9988      9990      9988      9990      9993      9994
      9988      9990      9993      9995      9988      9990      9993      9996
      9989      9988      9990      9991      9989      9988      9990      9992
      9989      9988      9990      9993      9990      9993      9996      9997
      9990      9993      9996      9998      9990      9993      9996      9999
      9991      9990      9993      9994      9991      9990      9993      9995
      9991      9990      9993      9996      9992      9990      9993      9994
      9992      9990      9993      9995      9992      9990      9993      9996
      9993      9996      9999     10000      9993      9996      9999     10001
      9993      9996      9999     10002      9994      9993      9996      9997
      9994      9993      9996      9998      9994      9993      9996      9999
      9995      9993      9996      9997      9995      9993      9996      9998
      9995      9993      9996      9999      9996      9999     10002     10003
      9996      9999     10002     10004      9996      9999     10002     10005
      9997      9996      9999     10000      9997      9996      9999     10001
      9997      9996      9999     10002      9998      9996      9999     10000
      9998      9996      9999     10001      9998      9996      9999     10002
      9999     10002     10005     10006      9999     10002     10005     10007
      9999     10002     10005     10008     10000      9999     10002     10003
     10000      9999     10002     10004     10000      9999     10002     10005
     10001      9999     10002     10003     10001      9999     10002     10004
     10001      9999     10002     10005     10002     10005     10008     10009
     10002     10005     10008     10010     10002     10005     10008     10011
     10003     10002     10005     10006     10003     10002     10005     10007
     10003     10002     10005     10008     10004     10002     10005     10006
     10004     10002     10005     10007     10004     10002     10005     10008
     10005     10008     10011     10012     10005     10008     10011     10013
     10005     10008     10011     10014     10006     10005     10008     10009
     10006     10005     10008     10010     10006     10005     10008     10011
     10007     10005     10008     10009     10007     10005     10008     10010
     10007     10005     10008     10011     10009     10008     10011     10012
     10009     10008     10011     10013     10009     10008     10011     10014
     10010     10008     10011     10012     10010     10008     10011     10013
     10010     10008     10011     10014     10015     10018     10021     10022
     10015     10018     10021     10023     10015     10018     10021     10024
     10016     10015     10018     10019     10016     10015     10018     10020
     10016     10015     10018     10021     10017     10015     10018     10019
     10017     10015     10018     10020     10017     10015     10018     10021
     10018     10021     10024     10025     10018     10021     10024     10026
     10018     10021     10024     10027     10019     10018     10021     10022
     10019     10018     10021     10023     10019     10018     10021     10024
     10020     10018     10021     10022     10020     10018     10021     10023
     10020     10018     10021     10024     10021     10024     10027     10028
     10021     10024     10027     10029     10021     10024     10027     10030
     10022     10021     10024     10025     10022     10021     10024     10026
     10022     10021     10024     10027     10023     10021     10024     10025
     10023     10021     10024     10026     10023     10021     10024     10027
     10024     10027     10030     10031     10024     10027     10030     10032
     10024     10027     10030     10033     10025     10024     10027     10028
     10025     10024     10027     10029     10025     10024     10027     10030
     10026     10024     10027     10028     10026     10024     10027     10029
     10026     10024     10027     10030     10027     10030     10033     10034
     10027     10030     10033     10035     10027     10030     10033     10036
     10028     10027     10030     10031     10028     10027     10030     10032
     10028     10027     10030     10033     10029     10027     10030     10031
     10029     10027     10030     10032     10029     10027     10030     10033
     10030     10033     10036     10037     10030     10033     10036     10038
     10030     10033     10036     10039     10031     10030     10033     10034
     10031     10030     10033     10035     10031     10030     10033     10036
     10032     10030     10033     10034     10032     10030     10033     10035
     10032     10030     10033     10036     10033     10036     10039     10040
     10033     10036     10039     10041     10033     10036     10039     10042
     10034     10033     10036     10037     10034     10033     10036     10038
     10034     10033     10036     10039     10035     10033     10036     10037
     10035     10033     10036     10038     10035     10033     10036     10039
     10036     10039     10042     10043     10036     10039     10042     10044
     10036     10039     10042     10045     10037     10036     10039     10040
     10037     10036     10039     10041     10037     10036     10039     10042
     10038     10036     10039     10040     10038     10036     10039     10041
     10038     10036     10039     10042     10039     10042     10045     10046
     10039     10042     10045     10047     10039     10042     10045     10048
     10040     10039     10042     10043     10040     10039     10042     10044
     10040     10039     10042     10045     10041     10039     10042     10043
     10041     10039     10042     10044     10041     10039     10042     10045
     10042     10045     10048     10049     10042     10045     10048     10050
     10042     10045     10048     10051     10043     10042     10045     10046
     10043     10042     10045     10047     10043     10042     10045     10048
     10044     10042     10045     10046     10044     10042     10045     10047
     10044     10042     10045     10048     10045     10048     10051     10052
     10045     10048     10051     10053     10045     10048     10051     10054
     10046     10045     10048     10049     10046     10045     10048     10050
     10046     10045     10048     10051     10047     10045     10048     10049
     10047     10045     10048     10050     10047     10045     10048     10051
     10048     10051     10054     10055     10048     10051     10054     10056
     10048     10051     10054     10057     10049     10048     10051     10052
     10049     10048     10051     10053     10049     10048     10051     10054
     10050     10048     10051     10052     10050     10048     10051     10053
     10050     10048     10051     10054     10052     10051     10054     10055
     10052     10051     10054     10056     10052     10051     10054     10057
     10053     10051     10054     10055     10053     10051     10054     10056
     10053     10051     10054     10057     10058     10062     10064     10065
     10058     10062     10064     10066     10058     10062     10067     10068
     10058     10062     10067     10069     10058     10062     10067     10073
     10059     10058     10062     10063     10059     10058     10062     10064
     10059     10058     10062     10067     10060     10058     10062     10063
     10060     10058     10062     10064     10060     10058     10062     10067
     10061     10058     10062     10063     10061     10058     10062     10064
     10061     10058     10062     10067     10062     10067     10073     10070
     10063     10062     10064     10065     10063     10062     10064     10066
     10063     10062     10067     10068     10063     10062     10067     10069
     10063     10062     10067     10073     10064     10062     10067     10068
     10064     10062     10067     10069     10064     10062     10067     10073
     10065     10064     10062     10067     10066     10064     10062     10067
     10067     10073     10070     10071     10067     10073     10070     10072
     10067     10073     10070     10074     10068     10067     10073     10070
     10069     10067     10073     10070     10070     10074     10075     10076
     10070     10074     10075     10077     10070     10074     10075     10078
     10071     10070     10074     10075     10072     10070     10074     10075
     10073     10070     10074     10075     10074     10075     10078     10079
     10074     10075     10078     10080     10074     10075     10078     10086
     10075     10078     10080     10081     10075     10078     10086     10087
     10075     10078     10086     10088     10075     10078     10086     10089
     10076     10075     10078     10079     10076     10075     10078     10080
     10076     10075     10078     10086     10077     10075     10078     10079
     10077     10075     10078     10080     10077     10075     10078     10086
     10078     10080     10081     10082     10078     10080     10081     10083
     10078     10086     10089     10090     10079     10078     10080     10081
     10079     10078     10086     10087     10079     10078     10086     10088
     10079     10078     10086     10089     10080     10078     10086     10087
     10080     10078     10086     10088     10080     10078     10086     10089
     10080     10081     10083     10084     10080     10081     10083     10085
     10080     10081     10083     10095     10081     10080     10078     10086
     10081     10083     10095     10096     10081     10083     10095     10097
     10081     10083     10095     10098     10082     10081     10083     10084
     10082     10081     10083     10085     10082     10081     10083     10095
     10083     10095     10098     10099     10083     10095     10098     10100
     10083     10095     10098     10101     10084     10083     10095     10096
     10084     10083     10095     10097     10084     10083     10095     10098
     10085     10083     10095     10096     10085     10083     10095     10097
     10085     10083     10095     10098     10086     10089     10090     10091
     10086     10089     10090     10092     10087     10086     10089     10090
     10088     10086     10089     10090     10089     10090     10092     10093
     10089     10090     10092     10094     10089     10090     10092     10142
     10090     10092     10142     10143     10090     10092     10142     10144
     10090     10092     10142     10145     10091     10090     10092     10093
     10091     10090     10092     10094     10091     10090     10092     10142
     10092     10142     10145     10146     10092     10142     10145     10147
     10092     10142     10145     10148     10093     10092     10142     10143
     10093     10092     10142     10144     10093     10092     10142     10145
     10094     10092     10142     10143     10094     10092     10142     10144
     10094     10092     10142     10145     10095     10098     10101     10102
     10095     10098     10101     10103     10095     10098     10101     10104
     10096     10095     10098     10099     10096     10095     10098     10100
     10096     10095     10098     10101     10097     10095     10098     10099
     10097     10095     10098     10100     10097     10095     10098     10101
     10098     10101     10104     10105     10098     10101     10104     10106
     10098     10101     10104     10107     10099     10098     10101     10102
     10099     10098     10101     10103     10099     10098     10101     10104
     10100     10098     10101     10102     10100     10098     10101     10103
     10100     10098     10101     10104     10101     10104     10107     10108
     10101     10104     10107     10109     10101     10104     10107     10110
     10102     10101     10104     10105     10102     10101     10104     10106
     10102     10101     10104     10107     10103     10101     10104     10105
     10103     10101     10104     10106     10103     10101     10104     10107
     10104     10107     10110     10111     10104     10107     10110     10112
     10104     10107     10110     10113     10105     10104     10107     10108
     10105     10104     10107     10109     10105     10104     10107     10110
     10106     10104     10107     10108     10106     10104     10107     10109
     10106     10104     10107     10110     10107     10110     10113     10114
     10107     10110     10113     10115     10108     10107     10110     10111
     10108     10107     10110     10112     10108     10107     10110     10113
     10109     10107     10110     10111     10109     10107     10110     10112
     10109     10107     10110     10113     10110     10113     10115     10116
     10110     10113     10115     10117     10111     10110     10113     10114
     10111     10110     10113     10115     10112     10110     10113     10114
     10112     10110     10113     10115     10113     10115     10117     10118
     10113     10115     10117     10119     10113     10115     10117     10120
     10114     10113     10115     10116     10114     10113     10115     10117
     10115     10117     10120     10121     10115     10117     10120     10122
     10115     10117     10120     10123     10116     10115     10117     10118
     10116     10115     10117     10119     10116     10115     10117     10120
     10117     10120     10123     10124     10117     10120     10123     10125
     10117     10120     10123     10126     10118     10117     10120     10121
     10118     10117     10120     10122     10118     10117     10120     10123
     10119     10117     10120     10121     10119     10117     10120     10122
     10119     10117     10120     10123     10120     10123     10126     10127
     10120     10123     10126     10128     10120     10123     10126     10129
     10121     10120     10123     10124     10121     10120     10123     10125
     10121     10120     10123     10126     10122     10120     10123     10124
     10122     10120     10123     10125     10122     10120     10123     10126
     10123     10126     10129     10130     10123     10126     10129     10131
     10123     10126     10129     10132     10124     10123     10126     10127
     10124     10123     10126     10128     10124     10123     10126     10129
     10125     10123     10126     10127     10125     10123     10126     10128
     10125     10123     10126     10129     10126     10129     10132     10133
     10126     10129     10132     10134     10126     10129     10132     10135
     10127     10126     10129     10130     10127     10126     10129     10131
     10127     10126     10129     10132     10128     10126     10129     10130
     10128     10126     10129     10131     10128     10126     10129     10132
     10129     10132     10135     10136     10129     10132     10135     10137
     10129     10132     10135     10138     10130     10129     10132     10133
     10130     10129     10132     10134     10130     10129     10132     10135
     10131     10129     10132     10133     10131     10129     10132     10134
     10131     10129     10132     10135     10132     10135     10138     10139
     10132     10135     10138     10140     10132     10135     10138     10141
     10133     10132     10135     10136     10133     10132     10135     10137
     10133     10132     10135     10138     10134     10132     10135     10136
     10134     10132     10135     10137     10134     10132     10135     10138
     10136     10135     10138     10139     10136     10135     10138     10140
     10136     10135     10138     10141     10137     10135     10138     10139
     10137     10135     10138     10140     10137     10135     10138     10141
     10142     10145     10148     10149     10142     10145     10148     10150
     10142     10145     10148     10151     10143     10142     10145     10146
     10143     10142     10145     10147     10143     10142     10145     10148
     10144     10142     10145     10146     10144     10142     10145     10147
     10144     10142     10145     10148     10145     10148     10151     10152
     10145     10148     10151     10153     10145     10148     10151     10154
     10146     10145     10148     10149     10146     10145     10148     10150
     10146     10145     10148     10151     10147     10145     10148     10149
     10147     10145     10148     10150     10147     10145     10148     10151
     10148     10151     10154     10155     10148     10151     10154     10156
     10148     10151     10154     10157     10149     10148     10151     10152
     10149     10148     10151     10153     10149     10148     10151     10154
     10150     10148     10151     10152     10150     10148     10151     10153
     10150     10148     10151     10154     10151     10154     10157     10158
     10151     10154     10157     10159     10151     10154     10157     10160
     10152     10151     10154     10155     10152     10151     10154     10156
     10152     10151     10154     10157     10153     10151     10154     10155
     10153     10151     10154     10156     10153     10151     10154     10157
     10154     10157     10160     10161     10154     10157     10160     10162
     10154     10157     10160     10163     10155     10154     10157     10158
     10155     10154     10157     10159     10155     10154     10157     10160
     10156     10154     10157     10158     10156     10154     10157     10159
     10156     10154     10157     10160     10157     10160     10163     10164
     10157     10160     10163     10165     10157     10160     10163     10166
     10158     10157     10160     10161     10158     10157     10160     10162
     10158     10157     10160     10163     10159     10157     10160     10161
     10159     10157     10160     10162     10159     10157     10160     10163
     10160     10163     10166     10167     10160     10163     10166     10168
     10160     10163     10166     10169     10161     10160     10163     10164
     10161     10160     10163     10165     10161     10160     10163     10166
     10162     10160     10163     10164     10162     10160     10163     10165
     10162     10160     10163     10166     10163     10166     10169     10170
     10163     10166     10169     10171     10163     10166     10169     10172
     10164     10163     10166     10167     10164     10163     10166     10168
     10164     10163     10166     10169     10165     10163     10166     10167
     10165     10163     10166     10168     10165     10163     10166     10169
     10166     10169     10172     10173     10166     10169     10172     10174
     10166     10169     10172     10175     10167     10166     10169     10170
     10167     10166     10169     10171     10167     10166     10169     10172
     10168     10166     10169     10170     10168     10166     10169     10171
     10168     10166     10169     10172     10169     10172     10175     10176
     10169     10172     10175     10177     10169     10172     10175     10178
     10170     10169     10172     10173     10170     10169     10172     10174
     10170     10169     10172     10175     10171     10169     10172     10173
     10171     10169     10172     10174     10171     10169     10172     10175
     10172     10175     10178     10179     10172     10175     10178     10180
     10172     10175     10178     10181     10173     10172     10175     10176
     10173     10172     10175     10177     10173     10172     10175     10178
     10174     10172     10175     10176     10174     10172     10175     10177
     10174     10172     10175     10178     10175     10178     10181     10182
     10175     10178     10181     10183     10175     10178     10181     10184
     10176     10175     10178     10179     10176     10175     10178     10180
     10176     10175     10178     10181     10177     10175     10178     10179
     10177     10175     10178     10180     10177     10175     10178     10181
     10179     10178     10181     10182     10179     10178     10181     10183
     10179     10178     10181     10184     10180     10178     10181     10182
     10180     10178     10181     10183     10180     10178     10181     10184
     10185     10186     10201     10202     10185     10186     10201     10203
     10185     10186     10201     10207     10186     10185     10189     10190
     10186     10185     10189     10191     10186     10185     10189     10192
     10186     10185     10193     10194     10186     10185     10193     10195
     10186     10185     10193     10196     10186     10185     10197     10198
     10186     10185     10197     10199     10186     10185     10197     10200
     10186     10201     10207     10204     10187     10186     10185     10189
     10187     10186     10185     10193     10187     10186     10185     10197
     10187     10186     10201     10202     10187     10186     10201     10203
     10187     10186     10201     10207     10188     10186     10185     10189
     10188     10186     10185     10193     10188     10186     10185     10197
     10188     10186     10201     10202     10188     10186     10201     10203
     10188     10186     10201     10207     10189     10185     10186     10201
     10189     10185     10193     10194     10189     10185     10193     10195
     10189     10185     10193     10196     10189     10185     10197     10198
     10189     10185     10197     10199     10189     10185     10197     10200
     10190     10189     10185     10193     10190     10189     10185     10197
     10191     10189     10185     10193     10191     10189     10185     10197
     10192     10189     10185     10193     10192     10189     10185     10197
     10193     10185     10186     10201     10193     10185     10197     10198
     10193     10185     10197     10199     10193     10185     10197     10200
     10194     10193     10185     10197     10195     10193     10185     10197
     10196     10193     10185     10197     10197     10185     10186     10201
     10201     10207     10204     10205     10201     10207     10204     10206
     10201     10207     10204     10208     10202     10201     10207     10204
     10203     10201     10207     10204     10204     10208     10209     10210
     10204     10208     10209     10211     10204     10208     10209     10212
     10205     10204     10208     10209     10206     10204     10208     10209
     10207     10204     10208     10209     10208     10209     10212     10213
     10208     10209     10212     10214     10208     10209     10212     10220
     10209     10212     10214     10215     10209     10212     10220     10221
     10209     10212     10220     10222     10209     10212     10220     10223
     10210     10209     10212     10213     10210     10209     10212     10214
     10210     10209     10212     10220     10211     10209     10212     10213
     10211     10209     10212     10214     10211     10209     10212     10220
     10212     10214     10215     10216     10212     10214     10215     10217
     10212     10220     10223     10224     10213     10212     10214     10215
     10213     10212     10220     10221     10213     10212     10220     10222
     10213     10212     10220     10223     10214     10212     10220     10221
     10214     10212     10220     10222     10214     10212     10220     10223
     10214     10215     10217     10218     10214     10215     10217     10219
     10214     10215     10217     10229     10215     10214     10212     10220
     10215     10217     10229     10230     10215     10217     10229     10231
     10215     10217     10229     10232     10216     10215     10217     10218
     10216     10215     10217     10219     10216     10215     10217     10229
     10217     10229     10232     10233     10217     10229     10232     10234
     10217     10229     10232     10235     10218     10217     10229     10230
     10218     10217     10229     10231     10218     10217     10229     10232
     10219     10217     10229     10230     10219     10217     10229     10231
     10219     10217     10229     10232     10220     10223     10224     10225
     10220     10223     10224     10226     10221     10220     10223     10224
     10222     10220     10223     10224     10223     10224     10226     10227
     10223     10224     10226     10228     10223     10224     10226     10276
     10224     10226     10276     10277     10224     10226     10276     10278
     10224     10226     10276     10279     10225     10224     10226     10227
     10225     10224     10226     10228     10225     10224     10226     10276
     10226     10276     10279     10280     10226     10276     10279     10281
     10226     10276     10279     10282     10227     10226     10276     10277
     10227     10226     10276     10278     10227     10226     10276     10279
     10228     10226     10276     10277     10228     10226     10276     10278
     10228     10226     10276     10279     10229     10232     10235     10236
     10229     10232     10235     10237     10229     10232     10235     10238
     10230     10229     10232     10233     10230     10229     10232     10234
     10230     10229     10232     10235     10231     10229     10232     10233
     10231     10229     10232     10234     10231     10229     10232     10235
     10232     10235     10238     10239     10232     10235     10238     10240
     10232     10235     10238     10241     10233     10232     10235     10236
     10233     10232     10235     10237     10233     10232     10235     10238
     10234     10232     10235     10236     10234     10232     10235     10237
     10234     10232     10235     10238     10235     10238     10241     10242
     10235     10238     10241     10243     10235     10238     10241     10244
     10236     10235     10238     10239     10236     10235     10238     10240
     10236     10235     10238     10241     10237     10235     10238     10239
     10237     10235     10238     10240     10237     10235     10238     10241
     10238     10241     10244     10245     10238     10241     10244     10246
     10238     10241     10244     10247     10239     10238     10241     10242
     10239     10238     10241     10243     10239     10238     10241     10244
     10240     10238     10241     10242     10240     10238     10241     10243
     10240     10238     10241     10244     10241     10244     10247     10248
     10241     10244     10247     10249     10242     10241     10244     10245
     10242     10241     10244     10246     10242     10241     10244     10247
     10243     10241     10244     10245     10243     10241     10244     10246
     10243     10241     10244     10247     10244     10247     10249     10250
     10244     10247     10249     10251     10245     10244     10247     10248
     10245     10244     10247     10249     10246     10244     10247     10248
     10246     10244     10247     10249     10247     10249     10251     10252
     10247     10249     10251     10253     10247     10249     10251     10254
     10248     10247     10249     10250     10248     10247     10249     10251
     10249     10251     10254     10255     10249     10251     10254     10256
     10249     10251     10254     10257     10250     10249     10251     10252
     10250     10249     10251     10253     10250     10249     10251     10254
     10251     10254     10257     10258     10251     10254     10257     10259
     10251     10254     10257     10260     10252     10251     10254     10255
     10252     10251     10254     10256     10252     10251     10254     10257
     10253     10251     10254     10255     10253     10251     10254     10256
     10253     10251     10254     10257     10254     10257     10260     10261
     10254     10257     10260     10262     10254     10257     10260     10263
     10255     10254     10257     10258     10255     10254     10257     10259
     10255     10254     10257     10260     10256     10254     10257     10258
     10256     10254     10257     10259     10256     10254     10257     10260
     10257     10260     10263     10264     10257     10260     10263     10265
     10257     10260     10263     10266     10258     10257     10260     10261
     10258     10257     10260     10262     10258     10257     10260     10263
     10259     10257     10260     10261     10259     10257     10260     10262
     10259     10257     10260     10263     10260     10263     10266     10267
     10260     10263     10266     10268     10260     10263     10266     10269
     10261     10260     10263     10264     10261     10260     10263     10265
     10261     10260     10263     10266     10262     10260     10263     10264
     10262     10260     10263     10265     10262     10260     10263     10266
     10263     10266     10269     10270     10263     10266     10269     10271
     10263     10266     10269     10272     10264     10263     10266     10267
     10264     10263     10266     10268     10264     10263     10266     10269
     10265     10263     10266     10267     10265     10263     10266     10268
     10265     10263     10266     10269     10266     10269     10272     10273
     10266     10269     10272     10274     10266     10269     10272     10275
     10267     10266     10269     10270     10267     10266     10269     10271
     10267     10266     10269     10272     10268     10266     10269     10270
     10268     10266     10269     10271     10268     10266     10269     10272
     10270     10269     10272     10273     10270     10269     10272     10274
     10270     10269     10272     10275     10271     10269     10272     10273
     10271     10269     10272     10274     10271     10269     10272     10275
     10276     10279     10282     10283     10276     10279     10282     10284
     10276     10279     10282     10285     10277     10276     10279     10280
     10277     10276     10279     10281     10277     10276     10279     10282
     10278     10276     10279     10280     10278     10276     10279     10281
     10278     10276     10279     10282     10279     10282     10285     10286
     10279     10282     10285     10287     10279     10282     10285     10288
     10280     10279     10282     10283     10280     10279     10282     10284
     10280     10279     10282     10285     10281     10279     10282     10283
     10281     10279     10282     10284     10281     10279     10282     10285
     10282     10285     10288     10289     10282     10285     10288     10290
     10282     10285     10288     10291     10283     10282     10285     10286
     10283     10282     10285     10287     10283     10282     10285     10288
     10284     10282     10285     10286     10284     10282     10285     10287
     10284     10282     10285     10288     10285     10288     10291     10292
     10285     10288     10291     10293     10285     10288     10291     10294
     10286     10285     10288     10289     10286     10285     10288     10290
     10286     10285     10288     10291     10287     10285     10288     10289
     10287     10285     10288     10290     10287     10285     10288     10291
     10288     10291     10294     10295     10288     10291     10294     10296
     10288     10291     10294     10297     10289     10288     10291     10292
     10289     10288     10291     10293     10289     10288     10291     10294
     10290     10288     10291     10292     10290     10288     10291     10293
     10290     10288     10291     10294     10291     10294     10297     10298
     10291     10294     10297     10299     10291     10294     10297     10300
     10292     10291     10294     10295     10292     10291     10294     10296
     10292     10291     10294     10297     10293     10291     10294     10295
     10293     10291     10294     10296     10293     10291     10294     10297
     10294     10297     10300     10301     10294     10297     10300     10302
     10294     10297     10300     10303     10295     10294     10297     10298
     10295     10294     10297     10299     10295     10294     10297     10300
     10296     10294     10297     10298     10296     10294     10297     10299
     10296     10294     10297     10300     10297     10300     10303     10304
     10297     10300     10303     10305     10297     10300     10303     10306
     10298     10297     10300     10301     10298     10297     10300     10302
     10298     10297     10300     10303     10299     10297     10300     10301
     10299     10297     10300     10302     10299     10297     10300     10303
     10300     10303     10306     10307     10300     10303     10306     10308
     10300     10303     10306     10309     10301     10300     10303     10304
     10301     10300     10303     10305     10301     10300     10303     10306
     10302     10300     10303     10304     10302     10300     10303     10305
     10302     10300     10303     10306     10303     10306     10309     10310
     10303     10306     10309     10311     10303     10306     10309     10312
     10304     10303     10306     10307     10304     10303     10306     10308
     10304     10303     10306     10309     10305     10303     10306     10307
     10305     10303     10306     10308     10305     10303     10306     10309
     10306     10309     10312     10313     10306     10309     10312     10314
     10306     10309     10312     10315     10307     10306     10309     10310
     10307     10306     10309     10311     10307     10306     10309     10312
     10308     10306     10309     10310     10308     10306     10309     10311
     10308     10306     10309     10312     10309     10312     10315     10316
     10309     10312     10315     10317     10309     10312     10315     10318
     10310     10309     10312     10313     10310     10309     10312     10314
     10310     10309     10312     10315     10311     10309     10312     10313
     10311     10309     10312     10314     10311     10309     10312     10315
     10313     10312     10315     10316     10313     10312     10315     10317
     10313     10312     10315     10318     10314     10312     10315     10316
     10314     10312     10315     10317     10314     10312     10315     10318
     10319     10323     10325     10326     10319     10323     10325     10327
     10319     10323     10328     10329     10319     10323     10328     10330
     10319     10323     10328     10334     10320     10319     10323     10324
     10320     10319     10323     10325     10320     10319     10323     10328
     10321     10319     10323     10324     10321     10319     10323     10325
     10321     10319     10323     10328     10322     10319     10323     10324
     10322     10319     10323     10325     10322     10319     10323     10328
     10323     10328     10334     10331     10324     10323     10325     10326
     10324     10323     10325     10327     10324     10323     10328     10329
     10324     10323     10328     10330     10324     10323     10328     10334
     10325     10323     10328     10329     10325     10323     10328     10330
     10325     10323     10328     10334     10326     10325     10323     10328
     10327     10325     10323     10328     10328     10334     10331     10332
     10328     10334     10331     10333     10328     10334     10331     10335
     10329     10328     10334     10331     10330     10328     10334     10331
     10331     10335     10336     10337     10331     10335     10336     10338
     10331     10335     10336     10339     10332     10331     10335     10336
     10333     10331     10335     10336     10334     10331     10335     10336
     10335     10336     10339     10340     10335     10336     10339     10341
     10335     10336     10339     10347     10336     10339     10341     10342
     10336     10339     10347     10348     10336     10339     10347     10349
     10336     10339     10347     10350     10337     10336     10339     10340
     10337     10336     10339     10341     10337     10336     10339     10347
     10338     10336     10339     10340     10338     10336     10339     10341
     10338     10336     10339     10347     10339     10341     10342     10343
     10339     10341     10342     10344     10339     10347     10350     10351
     10340     10339     10341     10342     10340     10339     10347     10348
     10340     10339     10347     10349     10340     10339     10347     10350
     10341     10339     10347     10348     10341     10339     10347     10349
     10341     10339     10347     10350     10341     10342     10344     10345
     10341     10342     10344     10346     10341     10342     10344     10356
     10342     10341     10339     10347     10342     10344     10356     10357
     10342     10344     10356     10358     10342     10344     10356     10359
     10343     10342     10344     10345     10343     10342     10344     10346
     10343     10342     10344     10356     10344     10356     10359     10360
     10344     10356     10359     10361     10344     10356     10359     10362
     10345     10344     10356     10357     10345     10344     10356     10358
     10345     10344     10356     10359     10346     10344     10356     10357
     10346     10344     10356     10358     10346     10344     10356     10359
     10347     10350     10351     10352     10347     10350     10351     10353
     10348     10347     10350     10351     10349     10347     10350     10351
     10350     10351     10353     10354     10350     10351     10353     10355
     10350     10351     10353     10403     10351     10353     10403     10404
     10351     10353     10403     10405     10351     10353     10403     10406
     10352     10351     10353     10354     10352     10351     10353     10355
     10352     10351     10353     10403     10353     10403     10406     10407
     10353     10403     10406     10408     10353     10403     10406     10409
     10354     10353     10403     10404     10354     10353     10403     10405
     10354     10353     10403     10406     10355     10353     10403     10404
     10355     10353     10403     10405     10355     10353     10403     10406
     10356     10359     10362     10363     10356     10359     10362     10364
     10356     10359     10362     10365     10357     10356     10359     10360
     10357     10356     10359     10361     10357     10356     10359     10362
     10358     10356     10359     10360     10358     10356     10359     10361
     10358     10356     10359     10362     10359     10362     10365     10366
     10359     10362     10365     10367     10359     10362     10365     10368
     10360     10359     10362     10363     10360     10359     10362     10364
     10360     10359     10362     10365     10361     10359     10362     10363
     10361     10359     10362     10364     10361     10359     10362     10365
     10362     10365     10368     10369     10362     10365     10368     10370
     10362     10365     10368     10371     10363     10362     10365     10366
     10363     10362     10365     10367     10363     10362     10365     10368
     10364     10362     10365     10366     10364     10362     10365     10367
     10364     10362     10365     10368     10365     10368     10371     10372
     10365     10368     10371     10373     10365     10368     10371     10374
     10366     10365     10368     10369     10366     10365     10368     10370
     10366     10365     10368     10371     10367     10365     10368     10369
     10367     10365     10368     10370     10367     10365     10368     10371
     10368     10371     10374     10375     10368     10371     10374     10376
     10369     10368     10371     10372     10369     10368     10371     10373
     10369     10368     10371     10374     10370     10368     10371     10372
     10370     10368     10371     10373     10370     10368     10371     10374
     10371     10374     10376     10377     10371     10374     10376     10378
     10372     10371     10374     10375     10372     10371     10374     10376
     10373     10371     10374     10375     10373     10371     10374     10376
     10374     10376     10378     10379     10374     10376     10378     10380
     10374     10376     10378     10381     10375     10374     10376     10377
     10375     10374     10376     10378     10376     10378     10381     10382
     10376     10378     10381     10383     10376     10378     10381     10384
     10377     10376     10378     10379     10377     10376     10378     10380
     10377     10376     10378     10381     10378     10381     10384     10385
     10378     10381     10384     10386     10378     10381     10384     10387
     10379     10378     10381     10382     10379     10378     10381     10383
     10379     10378     10381     10384     10380     10378     10381     10382
     10380     10378     10381     10383     10380     10378     10381     10384
     10381     10384     10387     10388     10381     10384     10387     10389
     10381     10384     10387     10390     10382     10381     10384     10385
     10382     10381     10384     10386     10382     10381     10384     10387
     10383     10381     10384     10385     10383     10381     10384     10386
     10383     10381     10384     10387     10384     10387     10390     10391
     10384     10387     10390     10392     10384     10387     10390     10393
     10385     10384     10387     10388     10385     10384     10387     10389
     10385     10384     10387     10390     10386     10384     10387     10388
     10386     10384     10387     10389     10386     10384     10387     10390
     10387     10390     10393     10394     10387     10390     10393     10395
     10387     10390     10393     10396     10388     10387     10390     10391
     10388     10387     10390     10392     10388     10387     10390     10393
     10389     10387     10390     10391     10389     10387     10390     10392
     10389     10387     10390     10393     10390     10393     10396     10397
     10390     10393     10396     10398     10390     10393     10396     10399
     10391     10390     10393     10394     10391     10390     10393     10395
     10391     10390     10393     10396     10392     10390     10393     10394
     10392     10390     10393     10395     10392     10390     10393     10396
     10393     10396     10399     10400     10393     10396     10399     10401
     10393     10396     10399     10402     10394     10393     10396     10397
     10394     10393     10396     10398     10394     10393     10396     10399
     10395     10393     10396     10397     10395     10393     10396     10398
     10395     10393     10396     10399     10397     10396     10399     10400
     10397     10396     10399     10401     10397     10396     10399     10402
     10398     10396     10399     10400     10398     10396     10399     10401
     10398     10396     10399     10402     10403     10406     10409     10410
     10403     10406     10409     10411     10403     10406     10409     10412
     10404     10403     10406     10407     10404     10403     10406     10408
     10404     10403     10406     10409     10405     10403     10406     10407
     10405     10403     10406     10408     10405     10403     10406     10409
     10406     10409     10412     10413     10406     10409     10412     10414
     10406     10409     10412     10415     10407     10406     10409     10410
     10407     10406     10409     10411     10407     10406     10409     10412
     10408     10406     10409     10410     10408     10406     10409     10411
     10408     10406     10409     10412     10409     10412     10415     10416
     10409     10412     10415     10417     10409     10412     10415     10418
     10410     10409     10412     10413     10410     10409     10412     10414
     10410     10409     10412     10415     10411     10409     10412     10413
     10411     10409     10412     10414     10411     10409     10412     10415
     10412     10415     10418     10419     10412     10415     10418     10420
     10412     10415     10418     10421     10413     10412     10415     10416
     10413     10412     10415     10417     10413     10412     10415     10418
     10414     10412     10415     10416     10414     10412     10415     10417
     10414     10412     10415     10418     10415     10418     10421     10422
     10415     10418     10421     10423     10415     10418     10421     10424
     10416     10415     10418     10419     10416     10415     10418     10420
     10416     10415     10418     10421     10417     10415     10418     10419
     10417     10415     10418     10420     10417     10415     10418     10421
     10418     10421     10424     10425     10418     10421     10424     10426
     10418     10421     10424     10427     10419     10418     10421     10422
     10419     10418     10421     10423     10419     10418     10421     10424
     10420     10418     10421     10422     10420     10418     10421     10423
     10420     10418     10421     10424     10421     10424     10427     10428
     10421     10424     10427     10429     10421     10424     10427     10430
     10422     10421     10424     10425     10422     10421     10424     10426
     10422     10421     10424     10427     10423     10421     10424     10425
     10423     10421     10424     10426     10423     10421     10424     10427
     10424     10427     10430     10431     10424     10427     10430     10432
     10424     10427     10430     10433     10425     10424     10427     10428
     10425     10424     10427     10429     10425     10424     10427     10430
     10426     10424     10427     10428     10426     10424     10427     10429
     10426     10424     10427     10430     10427     10430     10433     10434
     10427     10430     10433     10435     10427     10430     10433     10436
     10428     10427     10430     10431     10428     10427     10430     10432
     10428     10427     10430     10433     10429     10427     10430     10431
     10429     10427     10430     10432     10429     10427     10430     10433
     10430     10433     10436     10437     10430     10433     10436     10438
     10430     10433     10436     10439     10431     10430     10433     10434
     10431     10430     10433     10435     10431     10430     10433     10436
     10432     10430     10433     10434     10432     10430     10433     10435
     10432     10430     10433     10436     10433     10436     10439     10440
     10433     10436     10439     10441     10433     10436     10439     10442
     10434     10433     10436     10437     10434     10433     10436     10438
     10434     10433     10436     10439     10435     10433     10436     10437
     10435     10433     10436     10438     10435     10433     10436     10439
     10436     10439     10442     10443     10436     10439     10442     10444
     10436     10439     10442     10445     10437     10436     10439     10440
     10437     10436     10439     10441     10437     10436     10439     10442
     10438     10436     10439     10440     10438     10436     10439     10441
     10438     10436     10439     10442     10440     10439     10442     10443
     10440     10439     10442     10444     10440     10439     10442     10445
     10441     10439     10442     10443     10441     10439     10442     10444
     10441     10439     10442     10445     10446     10450     10452     10453
     10446     10450     10452     10454     10446     10450     10455     10456
     10446     10450     10455     10457     10446     10450     10455     10461
     10447     10446     10450     10451     10447     10446     10450     10452
     10447     10446     10450     10455     10448     10446     10450     10451
     10448     10446     10450     10452     10448     10446     10450     10455
     10449     10446     10450     10451     10449     10446     10450     10452
     10449     10446     10450     10455     10450     10455     10461     10458
     10451     10450     10452     10453     10451     10450     10452     10454
     10451     10450     10455     10456     10451     10450     10455     10457
     10451     10450     10455     10461     10452     10450     10455     10456
     10452     10450     10455     10457     10452     10450     10455     10461
     10453     10452     10450     10455     10454     10452     10450     10455
     10455     10461     10458     10459     10455     10461     10458     10460
     10455     10461     10458     10462     10456     10455     10461     10458
     10457     10455     10461     10458     10458     10462     10463     10464
     10458     10462     10463     10465     10458     10462     10463     10466
     10459     10458     10462     10463     10460     10458     10462     10463
     10461     10458     10462     10463     10462     10463     10466     10467
     10462     10463     10466     10468     10462     10463     10466     10474
     10463     10466     10468     10469     10463     10466     10474     10475
     10463     10466     10474     10476     10463     10466     10474     10477
     10464     10463     10466     10467     10464     10463     10466     10468
     10464     10463     10466     10474     10465     10463     10466     10467
     10465     10463     10466     10468     10465     10463     10466     10474
     10466     10468     10469     10470     10466     10468     10469     10471
     10466     10474     10477     10478     10467     10466     10468     10469
     10467     10466     10474     10475     10467     10466     10474     10476
     10467     10466     10474     10477     10468     10466     10474     10475
     10468     10466     10474     10476     10468     10466     10474     10477
     10468     10469     10471     10472     10468     10469     10471     10473
     10468     10469     10471     10483     10469     10468     10466     10474
     10469     10471     10483     10484     10469     10471     10483     10485
     10469     10471     10483     10486     10470     10469     10471     10472
     10470     10469     10471     10473     10470     10469     10471     10483
     10471     10483     10486     10487     10471     10483     10486     10488
     10471     10483     10486     10489     10472     10471     10483     10484
     10472     10471     10483     10485     10472     10471     10483     10486
     10473     10471     10483     10484     10473     10471     10483     10485
     10473     10471     10483     10486     10474     10477     10478     10479
     10474     10477     10478     10480     10475     10474     10477     10478
     10476     10474     10477     10478     10477     10478     10480     10481
     10477     10478     10480     10482     10477     10478     10480     10530
     10478     10480     10530     10531     10478     10480     10530     10532
     10478     10480     10530     10533     10479     10478     10480     10481
     10479     10478     10480     10482     10479     10478     10480     10530
     10480     10530     10533     10534     10480     10530     10533     10535
     10480     10530     10533     10536     10481     10480     10530     10531
     10481     10480     10530     10532     10481     10480     10530     10533
     10482     10480     10530     10531     10482     10480     10530     10532
     10482     10480     10530     10533     10483     10486     10489     10490
     10483     10486     10489     10491     10483     10486     10489     10492
     10484     10483     10486     10487     10484     10483     10486     10488
     10484     10483     10486     10489     10485     10483     10486     10487
     10485     10483     10486     10488     10485     10483     10486     10489
     10486     10489     10492     10493     10486     10489     10492     10494
     10486     10489     10492     10495     10487     10486     10489     10490
     10487     10486     10489     10491     10487     10486     10489     10492
     10488     10486     10489     10490     10488     10486     10489     10491
     10488     10486     10489     10492     10489     10492     10495     10496
     10489     10492     10495     10497     10489     10492     10495     10498
     10490     10489     10492     10493     10490     10489     10492     10494
     10490     10489     10492     10495     10491     10489     10492     10493
     10491     10489     10492     10494     10491     10489     10492     10495
     10492     10495     10498     10499     10492     10495     10498     10500
     10492     10495     10498     10501     10493     10492     10495     10496
     10493     10492     10495     10497     10493     10492     10495     10498
     10494     10492     10495     10496     10494     10492     10495     10497
     10494     10492     10495     10498     10495     10498     10501     10502
     10495     10498     10501     10503     10496     10495     10498     10499
     10496     10495     10498     10500     10496     10495     10498     10501
     10497     10495     10498     10499     10497     10495     10498     10500
     10497     10495     10498     10501     10498     10501     10503     10504
     10498     10501     10503     10505     10499     10498     10501     10502
     10499     10498     10501     10503     10500     10498     10501     10502
     10500     10498     10501     10503     10501     10503     10505     10506
     10501     10503     10505     10507     10501     10503     10505     10508
     10502     10501     10503     10504     10502     10501     10503     10505
     10503     10505     10508     10509     10503     10505     10508     10510
     10503     10505     10508     10511     10504     10503     10505     10506
     10504     10503     10505     10507     10504     10503     10505     10508
     10505     10508     10511     10512     10505     10508     10511     10513
     10505     10508     10511     10514     10506     10505     10508     10509
     10506     10505     10508     10510     10506     10505     10508     10511
     10507     10505     10508     10509     10507     10505     10508     10510
     10507     10505     10508     10511     10508     10511     10514     10515
     10508     10511     10514     10516     10508     10511     10514     10517
     10509     10508     10511     10512     10509     10508     10511     10513
     10509     10508     10511     10514     10510     10508     10511     10512
     10510     10508     10511     10513     10510     10508     10511     10514
     10511     10514     10517     10518     10511     10514     10517     10519
     10511     10514     10517     10520     10512     10511     10514     10515
     10512     10511     10514     10516     10512     10511     10514     10517
     10513     10511     10514     10515     10513     10511     10514     10516
     10513     10511     10514     10517     10514     10517     10520     10521
     10514     10517     10520     10522     10514     10517     10520     10523
     10515     10514     10517     10518     10515     10514     10517     10519
     10515     10514     10517     10520     10516     10514     10517     10518
     10516     10514     10517     10519     10516     10514     10517     10520
     10517     10520     10523     10524     10517     10520     10523     10525
     10517     10520     10523     10526     10518     10517     10520     10521
     10518     10517     10520     10522     10518     10517     10520     10523
     10519     10517     10520     10521     10519     10517     10520     10522
     10519     10517     10520     10523     10520     10523     10526     10527
     10520     10523     10526     10528     10520     10523     10526     10529
     10521     10520     10523     10524     10521     10520     10523     10525
     10521     10520     10523     10526     10522     10520     10523     10524
     10522     10520     10523     10525     10522     10520     10523     10526
     10524     10523     10526     10527     10524     10523     10526     10528
     10524     10523     10526     10529     10525     10523     10526     10527
     10525     10523     10526     10528     10525     10523     10526     10529
     10530     10533     10536     10537     10530     10533     10536     10538
     10530     10533     10536     10539     10531     10530     10533     10534
     10531     10530     10533     10535     10531     10530     10533     10536
     10532     10530     10533     10534     10532     10530     10533     10535
     10532     10530     10533     10536     10533     10536     10539     10540
     10533     10536     10539     10541     10533     10536     10539     10542
     10534     10533     10536     10537     10534     10533     10536     10538
     10534     10533     10536     10539     10535     10533     10536     10537
     10535     10533     10536     10538     10535     10533     10536     10539
     10536     10539     10542     10543     10536     10539     10542     10544
     10536     10539     10542     10545     10537     10536     10539     10540
     10537     10536     10539     10541     10537     10536     10539     10542
     10538     10536     10539     10540     10538     10536     10539     10541
     10538     10536     10539     10542     10539     10542     10545     10546
     10539     10542     10545     10547     10539     10542     10545     10548
     10540     10539     10542     10543     10540     10539     10542     10544
     10540     10539     10542     10545     10541     10539     10542     10543
     10541     10539     10542     10544     10541     10539     10542     10545
     10542     10545     10548     10549     10542     10545     10548     10550
     10542     10545     10548     10551     10543     10542     10545     10546
     10543     10542     10545     10547     10543     10542     10545     10548
     10544     10542     10545     10546     10544     10542     10545     10547
     10544     10542     10545     10548     10545     10548     10551     10552
     10545     10548     10551     10553     10545     10548     10551     10554
     10546     10545     10548     10549     10546     10545     10548     10550
     10546     10545     10548     10551     10547     10545     10548     10549
     10547     10545     10548     10550     10547     10545     10548     10551
     10548     10551     10554     10555     10548     10551     10554     10556
     10548     10551     10554     10557     10549     10548     10551     10552
     10549     10548     10551     10553     10549     10548     10551     10554
     10550     10548     10551     10552     10550     10548     10551     10553
     10550     10548     10551     10554     10551     10554     10557     10558
     10551     10554     10557     10559     10551     10554     10557     10560
     10552     10551     10554     10555     10552     10551     10554     10556
     10552     10551     10554     10557     10553     10551     10554     10555
     10553     10551     10554     10556     10553     10551     10554     10557
     10554     10557     10560     10561     10554     10557     10560     10562
     10554     10557     10560     10563     10555     10554     10557     10558
     10555     10554     10557     10559     10555     10554     10557     10560
     10556     10554     10557     10558     10556     10554     10557     10559
     10556     10554     10557     10560     10557     10560     10563     10564
     10557     10560     10563     10565     10557     10560     10563     10566
     10558     10557     10560     10561     10558     10557     10560     10562
     10558     10557     10560     10563     10559     10557     10560     10561
     10559     10557     10560     10562     10559     10557     10560     10563
     10560     10563     10566     10567     10560     10563     10566     10568
     10560     10563     10566     10569     10561     10560     10563     10564
     10561     10560     10563     10565     10561     10560     10563     10566
     10562     10560     10563     10564     10562     10560     10563     10565
     10562     10560     10563     10566     10563     10566     10569     10570
     10563     10566     10569     10571     10563     10566     10569     10572
     10564     10563     10566     10567     10564     10563     10566     10568
     10564     10563     10566     10569     10565     10563     10566     10567
     10565     10563     10566     10568     10565     10563     10566     10569
     10567     10566     10569     10570     10567     10566     10569     10571
     10567     10566     10569     10572     10568     10566     10569     10570
     10568     10566     10569     10571     10568     10566     10569     10572
     10573     10574     10589     10590     10573     10574     10589     10591
     10573     10574     10589     10595     10574     10573     10577     10578
     10574     10573     10577     10579     10574     10573     10577     10580
     10574     10573     10581     10582     10574     10573     10581     10583
     10574     10573     10581     10584     10574     10573     10585     10586
     10574     10573     10585     10587     10574     10573     10585     10588
     10574     10589     10595     10592     10575     10574     10573     10577
     10575     10574     10573     10581     10575     10574     10573     10585
     10575     10574     10589     10590     10575     10574     10589     10591
     10575     10574     10589     10595     10576     10574     10573     10577
     10576     10574     10573     10581     10576     10574     10573     10585
     10576     10574     10589     10590     10576     10574     10589     10591
     10576     10574     10589     10595     10577     10573     10574     10589
     10577     10573     10581     10582     10577     10573     10581     10583
     10577     10573     10581     10584     10577     10573     10585     10586
     10577     10573     10585     10587     10577     10573     10585     10588
     10578     10577     10573     10581     10578     10577     10573     10585
     10579     10577     10573     10581     10579     10577     10573     10585
     10580     10577     10573     10581     10580     10577     10573     10585
     10581     10573     10574     10589     10581     10573     10585     10586
     10581     10573     10585     10587     10581     10573     10585     10588
     10582     10581     10573     10585     10583     10581     10573     10585
     10584     10581     10573     10585     10585     10573     10574     10589
     10589     10595     10592     10593     10589     10595     10592     10594
     10589     10595     10592     10596     10590     10589     10595     10592
     10591     10589     10595     10592     10592     10596     10597     10598
     10592     10596     10597     10599     10592     10596     10597     10600
     10593     10592     10596     10597     10594     10592     10596     10597
     10595     10592     10596     10597     10596     10597     10600     10601
     10596     10597     10600     10602     10596     10597     10600     10608
     10597     10600     10602     10603     10597     10600     10608     10609
     10597     10600     10608     10610     10597     10600     10608     10611
     10598     10597     10600     10601     10598     10597     10600     10602
     10598     10597     10600     10608     10599     10597     10600     10601
     10599     10597     10600     10602     10599     10597     10600     10608
     10600     10602     10603     10604     10600     10602     10603     10605
     10600     10608     10611     10612     10601     10600     10602     10603
     10601     10600     10608     10609     10601     10600     10608     10610
     10601     10600     10608     10611     10602     10600     10608     10609
     10602     10600     10608     10610     10602     10600     10608     10611
     10602     10603     10605     10606     10602     10603     10605     10607
     10602     10603     10605     10617     10603     10602     10600     10608
     10603     10605     10617     10618     10603     10605     10617     10619
     10603     10605     10617     10620     10604     10603     10605     10606
     10604     10603     10605     10607     10604     10603     10605     10617
     10605     10617     10620     10621     10605     10617     10620     10622
     10605     10617     10620     10623     10606     10605     10617     10618
     10606     10605     10617     10619     10606     10605     10617     10620
     10607     10605     10617     10618     10607     10605     10617     10619
     10607     10605     10617     10620     10608     10611     10612     10613
     10608     10611     10612     10614     10609     10608     10611     10612
     10610     10608     10611     10612     10611     10612     10614     10615
     10611     10612     10614     10616     10611     10612     10614     10664
     10612     10614     10664     10665     10612     10614     10664     10666
     10612     10614     10664     10667     10613     10612     10614     10615
     10613     10612     10614     10616     10613     10612     10614     10664
     10614     10664     10667     10668     10614     10664     10667     10669
     10614     10664     10667     10670     10615     10614     10664     10665
     10615     10614     10664     10666     10615     10614     10664     10667
     10616     10614     10664     10665     10616     10614     10664     10666
     10616     10614     10664     10667     10617     10620     10623     10624
     10617     10620     10623     10625     10617     10620     10623     10626
     10618     10617     10620     10621     10618     10617     10620     10622
     10618     10617     10620     10623     10619     10617     10620     10621
     10619     10617     10620     10622     10619     10617     10620     10623
     10620     10623     10626     10627     10620     10623     10626     10628
     10620     10623     10626     10629     10621     10620     10623     10624
     10621     10620     10623     10625     10621     10620     10623     10626
     10622     10620     10623     10624     10622     10620     10623     10625
     10622     10620     10623     10626     10623     10626     10629     10630
     10623     10626     10629     10631     10623     10626     10629     10632
     10624     10623     10626     10627     10624     10623     10626     10628
     10624     10623     10626     10629     10625     10623     10626     10627
     10625     10623     10626     10628     10625     10623     10626     10629
     10626     10629     10632     10633     10626     10629     10632     10634
     10626     10629     10632     10635     10627     10626     10629     10630
     10627     10626     10629     10631     10627     10626     10629     10632
     10628     10626     10629     10630     10628     10626     10629     10631
     10628     10626     10629     10632     10629     10632     10635     10636
     10629     10632     10635     10637     10630     10629     10632     10633
     10630     10629     10632     10634     10630     10629     10632     10635
     10631     10629     10632     10633     10631     10629     10632     10634
     10631     10629     10632     10635     10632     10635     10637     10638
     10632     10635     10637     10639     10633     10632     10635     10636
     10633     10632     10635     10637     10634     10632     10635     10636
     10634     10632     10635     10637     10635     10637     10639     10640
     10635     10637     10639     10641     10635     10637     10639     10642
     10636     10635     10637     10638     10636     10635     10637     10639
     10637     10639     10642     10643     10637     10639     10642     10644
     10637     10639     10642     10645     10638     10637     10639     10640
     10638     10637     10639     10641     10638     10637     10639     10642
     10639     10642     10645     10646     10639     10642     10645     10647
     10639     10642     10645     10648     10640     10639     10642     10643
     10640     10639     10642     10644     10640     10639     10642     10645
     10641     10639     10642     10643     10641     10639     10642     10644
     10641     10639     10642     10645     10642     10645     10648     10649
     10642     10645     10648     10650     10642     10645     10648     10651
     10643     10642     10645     10646     10643     10642     10645     10647
     10643     10642     10645     10648     10644     10642     10645     10646
     10644     10642     10645     10647     10644     10642     10645     10648
     10645     10648     10651     10652     10645     10648     10651     10653
     10645     10648     10651     10654     10646     10645     10648     10649
     10646     10645     10648     10650     10646     10645     10648     10651
     10647     10645     10648     10649     10647     10645     10648     10650
     10647     10645     10648     10651     10648     10651     10654     10655
     10648     10651     10654     10656     10648     10651     10654     10657
     10649     10648     10651     10652     10649     10648     10651     10653
     10649     10648     10651     10654     10650     10648     10651     10652
     10650     10648     10651     10653     10650     10648     10651     10654
     10651     10654     10657     10658     10651     10654     10657     10659
     10651     10654     10657     10660     10652     10651     10654     10655
     10652     10651     10654     10656     10652     10651     10654     10657
     10653     10651     10654     10655     10653     10651     10654     10656
     10653     10651     10654     10657     10654     10657     10660     10661
     10654     10657     10660     10662     10654     10657     10660     10663
     10655     10654     10657     10658     10655     10654     10657     10659
     10655     10654     10657     10660     10656     10654     10657     10658
     10656     10654     10657     10659     10656     10654     10657     10660
     10658     10657     10660     10661     10658     10657     10660     10662
     10658     10657     10660     10663     10659     10657     10660     10661
     10659     10657     10660     10662     10659     10657     10660     10663
     10664     10667     10670     10671     10664     10667     10670     10672
     10664     10667     10670     10673     10665     10664     10667     10668
     10665     10664     10667     10669     10665     10664     10667     10670
     10666     10664     10667     10668     10666     10664     10667     10669
     10666     10664     10667     10670     10667     10670     10673     10674
     10667     10670     10673     10675     10667     10670     10673     10676
     10668     10667     10670     10671     10668     10667     10670     10672
     10668     10667     10670     10673     10669     10667     10670     10671
     10669     10667     10670     10672     10669     10667     10670     10673
     10670     10673     10676     10677     10670     10673     10676     10678
     10670     10673     10676     10679     10671     10670     10673     10674
     10671     10670     10673     10675     10671     10670     10673     10676
     10672     10670     10673     10674     10672     10670     10673     10675
     10672     10670     10673     10676     10673     10676     10679     10680
     10673     10676     10679     10681     10673     10676     10679     10682
     10674     10673     10676     10677     10674     10673     10676     10678
     10674     10673     10676     10679     10675     10673     10676     10677
     10675     10673     10676     10678     10675     10673     10676     10679
     10676     10679     10682     10683     10676     10679     10682     10684
     10676     10679     10682     10685     10677     10676     10679     10680
     10677     10676     10679     10681     10677     10676     10679     10682
     10678     10676     10679     10680     10678     10676     10679     10681
     10678     10676     10679     10682     10679     10682     10685     10686
     10679     10682     10685     10687     10679     10682     10685     10688
     10680     10679     10682     10683     10680     10679     10682     10684
     10680     10679     10682     10685     10681     10679     10682     10683
     10681     10679     10682     10684     10681     10679     10682     10685
     10682     10685     10688     10689     10682     10685     10688     10690
     10682     10685     10688     10691     10683     10682     10685     10686
     10683     10682     10685     10687     10683     10682     10685     10688
     10684     10682     10685     10686     10684     10682     10685     10687
     10684     10682     10685     10688     10685     10688     10691     10692
     10685     10688     10691     10693     10685     10688     10691     10694
     10686     10685     10688     10689     10686     10685     10688     10690
     10686     10685     10688     10691     10687     10685     10688     10689
     10687     10685     10688     10690     10687     10685     10688     10691
     10688     10691     10694     10695     10688     10691     10694     10696
     10688     10691     10694     10697     10689     10688     10691     10692
     10689     10688     10691     10693     10689     10688     10691     10694
     10690     10688     10691     10692     10690     10688     10691     10693
     10690     10688     10691     10694     10691     10694     10697     10698
     10691     10694     10697     10699     10691     10694     10697     10700
     10692     10691     10694     10695     10692     10691     10694     10696
     10692     10691     10694     10697     10693     10691     10694     10695
     10693     10691     10694     10696     10693     10691     10694     10697
     10694     10697     10700     10701     10694     10697     10700     10702
     10694     10697     10700     10703     10695     10694     10697     10698
     10695     10694     10697     10699     10695     10694     10697     10700
     10696     10694     10697     10698     10696     10694     10697     10699
     10696     10694     10697     10700     10697     10700     10703     10704
     10697     10700     10703     10705     10697     10700     10703     10706
     10698     10697     10700     10701     10698     10697     10700     10702
     10698     10697     10700     10703     10699     10697     10700     10701
     10699     10697     10700     10702     10699     10697     10700     10703
     10701     10700     10703     10704     10701     10700     10703     10705
     10701     10700     10703     10706     10702     10700     10703     10704
     10702     10700     10703     10705     10702     10700     10703     10706
     10707     10708     10723     10724     10707     10708     10723     10725
     10707     10708     10723     10729     10708     10707     10711     10712
     10708     10707     10711     10713     10708     10707     10711     10714
     10708     10707     10715     10716     10708     10707     10715     10717
     10708     10707     10715     10718     10708     10707     10719     10720
     10708     10707     10719     10721     10708     10707     10719     10722
     10708     10723     10729     10726     10709     10708     10707     10711
     10709     10708     10707     10715     10709     10708     10707     10719
     10709     10708     10723     10724     10709     10708     10723     10725
     10709     10708     10723     10729     10710     10708     10707     10711
     10710     10708     10707     10715     10710     10708     10707     10719
     10710     10708     10723     10724     10710     10708     10723     10725
     10710     10708     10723     10729     10711     10707     10708     10723
     10711     10707     10715     10716     10711     10707     10715     10717
     10711     10707     10715     10718     10711     10707     10719     10720
     10711     10707     10719     10721     10711     10707     10719     10722
     10712     10711     10707     10715     10712     10711     10707     10719
     10713     10711     10707     10715     10713     10711     10707     10719
     10714     10711     10707     10715     10714     10711     10707     10719
     10715     10707     10708     10723     10715     10707     10719     10720
     10715     10707     10719     10721     10715     10707     10719     10722
     10716     10715     10707     10719     10717     10715     10707     10719
     10718     10715     10707     10719     10719     10707     10708     10723
     10723     10729     10726     10727     10723     10729     10726     10728
     10723     10729     10726     10730     10724     10723     10729     10726
     10725     10723     10729     10726     10726     10730     10731     10732
     10726     10730     10731     10733     10726     10730     10731     10734
     10727     10726     10730     10731     10728     10726     10730     10731
     10729     10726     10730     10731     10730     10731     10734     10735
     10730     10731     10734     10736     10730     10731     10734     10742
     10731     10734     10736     10737     10731     10734     10742     10743
     10731     10734     10742     10744     10731     10734     10742     10745
     10732     10731     10734     10735     10732     10731     10734     10736
     10732     10731     10734     10742     10733     10731     10734     10735
     10733     10731     10734     10736     10733     10731     10734     10742
     10734     10736     10737     10738     10734     10736     10737     10739
     10734     10742     10745     10746     10735     10734     10736     10737
     10735     10734     10742     10743     10735     10734     10742     10744
     10735     10734     10742     10745     10736     10734     10742     10743
     10736     10734     10742     10744     10736     10734     10742     10745
     10736     10737     10739     10740     10736     10737     10739     10741
     10736     10737     10739     10751     10737     10736     10734     10742
     10737     10739     10751     10752     10737     10739     10751     10753
     10737     10739     10751     10754     10738     10737     10739     10740
     10738     10737     10739     10741     10738     10737     10739     10751
     10739     10751     10754     10755     10739     10751     10754     10756
     10739     10751     10754     10757     10740     10739     10751     10752
     10740     10739     10751     10753     10740     10739     10751     10754
     10741     10739     10751     10752     10741     10739     10751     10753
     10741     10739     10751     10754     10742     10745     10746     10747
     10742     10745     10746     10748     10743     10742     10745     10746
     10744     10742     10745     10746     10745     10746     10748     10749
     10745     10746     10748     10750     10745     10746     10748     10798
     10746     10748     10798     10799     10746     10748     10798     10800
     10746     10748     10798     10801     10747     10746     10748     10749
     10747     10746     10748     10750     10747     10746     10748     10798
     10748     10798     10801     10802     10748     10798     10801     10803
     10748     10798     10801     10804     10749     10748     10798     10799
     10749     10748     10798     10800     10749     10748     10798     10801
     10750     10748     10798     10799     10750     10748     10798     10800
     10750     10748     10798     10801     10751     10754     10757     10758
     10751     10754     10757     10759     10751     10754     10757     10760
     10752     10751     10754     10755     10752     10751     10754     10756
     10752     10751     10754     10757     10753     10751     10754     10755
     10753     10751     10754     10756     10753     10751     10754     10757
     10754     10757     10760     10761     10754     10757     10760     10762
     10754     10757     10760     10763     10755     10754     10757     10758
     10755     10754     10757     10759     10755     10754     10757     10760
     10756     10754     10757     10758     10756     10754     10757     10759
     10756     10754     10757     10760     10757     10760     10763     10764
     10757     10760     10763     10765     10757     10760     10763     10766
     10758     10757     10760     10761     10758     10757     10760     10762
     10758     10757     10760     10763     10759     10757     10760     10761
     10759     10757     10760     10762     10759     10757     10760     10763
     10760     10763     10766     10767     10760     10763     10766     10768
     10760     10763     10766     10769     10761     10760     10763     10764
     10761     10760     10763     10765     10761     10760     10763     10766
     10762     10760     10763     10764     10762     10760     10763     10765
     10762     10760     10763     10766     10763     10766     10769     10770
     10763     10766     10769     10771     10764     10763     10766     10767
     10764     10763     10766     10768     10764     10763     10766     10769
     10765     10763     10766     10767     10765     10763     10766     10768
     10765     10763     10766     10769     10766     10769     10771     10772
     10766     10769     10771     10773     10767     10766     10769     10770
     10767     10766     10769     10771     10768     10766     10769     10770
     10768     10766     10769     10771     10769     10771     10773     10774
     10769     10771     10773     10775     10769     10771     10773     10776
     10770     10769     10771     10772     10770     10769     10771     10773
     10771     10773     10776     10777     10771     10773     10776     10778
     10771     10773     10776     10779     10772     10771     10773     10774
     10772     10771     10773     10775     10772     10771     10773     10776
     10773     10776     10779     10780     10773     10776     10779     10781
     10773     10776     10779     10782     10774     10773     10776     10777
     10774     10773     10776     10778     10774     10773     10776     10779
     10775     10773     10776     10777     10775     10773     10776     10778
     10775     10773     10776     10779     10776     10779     10782     10783
     10776     10779     10782     10784     10776     10779     10782     10785
     10777     10776     10779     10780     10777     10776     10779     10781
     10777     10776     10779     10782     10778     10776     10779     10780
     10778     10776     10779     10781     10778     10776     10779     10782
     10779     10782     10785     10786     10779     10782     10785     10787
     10779     10782     10785     10788     10780     10779     10782     10783
     10780     10779     10782     10784     10780     10779     10782     10785
     10781     10779     10782     10783     10781     10779     10782     10784
     10781     10779     10782     10785     10782     10785     10788     10789
     10782     10785     10788     10790     10782     10785     10788     10791
     10783     10782     10785     10786     10783     10782     10785     10787
     10783     10782     10785     10788     10784     10782     10785     10786
     10784     10782     10785     10787     10784     10782     10785     10788
     10785     10788     10791     10792     10785     10788     10791     10793
     10785     10788     10791     10794     10786     10785     10788     10789
     10786     10785     10788     10790     10786     10785     10788     10791
     10787     10785     10788     10789     10787     10785     10788     10790
     10787     10785     10788     10791     10788     10791     10794     10795
     10788     10791     10794     10796     10788     10791     10794     10797
     10789     10788     10791     10792     10789     10788     10791     10793
     10789     10788     10791     10794     10790     10788     10791     10792
     10790     10788     10791     10793     10790     10788     10791     10794
     10792     10791     10794     10795     10792     10791     10794     10796
     10792     10791     10794     10797     10793     10791     10794     10795
     10793     10791     10794     10796     10793     10791     10794     10797
     10798     10801     10804     10805     10798     10801     10804     10806
     10798     10801     10804     10807     10799     10798     10801     10802
     10799     10798     10801     10803     10799     10798     10801     10804
     10800     10798     10801     10802     10800     10798     10801     10803
     10800     10798     10801     10804     10801     10804     10807     10808
     10801     10804     10807     10809     10801     10804     10807     10810
     10802     10801     10804     10805     10802     10801     10804     10806
     10802     10801     10804     10807     10803     10801     10804     10805
     10803     10801     10804     10806     10803     10801     10804     10807
     10804     10807     10810     10811     10804     10807     10810     10812
     10804     10807     10810     10813     10805     10804     10807     10808
     10805     10804     10807     10809     10805     10804     10807     10810
     10806     10804     10807     10808     10806     10804     10807     10809
     10806     10804     10807     10810     10807     10810     10813     10814
     10807     10810     10813     10815     10807     10810     10813     10816
     10808     10807     10810     10811     10808     10807     10810     10812
     10808     10807     10810     10813     10809     10807     10810     10811
     10809     10807     10810     10812     10809     10807     10810     10813
     10810     10813     10816     10817     10810     10813     10816     10818
     10810     10813     10816     10819     10811     10810     10813     10814
     10811     10810     10813     10815     10811     10810     10813     10816
     10812     10810     10813     10814     10812     10810     10813     10815
     10812     10810     10813     10816     10813     10816     10819     10820
     10813     10816     10819     10821     10813     10816     10819     10822
     10814     10813     10816     10817     10814     10813     10816     10818
     10814     10813     10816     10819     10815     10813     10816     10817
     10815     10813     10816     10818     10815     10813     10816     10819
     10816     10819     10822     10823     10816     10819     10822     10824
     10816     10819     10822     10825     10817     10816     10819     10820
     10817     10816     10819     10821     10817     10816     10819     10822
     10818     10816     10819     10820     10818     10816     10819     10821
     10818     10816     10819     10822     10819     10822     10825     10826
     10819     10822     10825     10827     10819     10822     10825     10828
     10820     10819     10822     10823     10820     10819     10822     10824
     10820     10819     10822     10825     10821     10819     10822     10823
     10821     10819     10822     10824     10821     10819     10822     10825
     10822     10825     10828     10829     10822     10825     10828     10830
     10822     10825     10828     10831     10823     10822     10825     10826
     10823     10822     10825     10827     10823     10822     10825     10828
     10824     10822     10825     10826     10824     10822     10825     10827
     10824     10822     10825     10828     10825     10828     10831     10832
     10825     10828     10831     10833     10825     10828     10831     10834
     10826     10825     10828     10829     10826     10825     10828     10830
     10826     10825     10828     10831     10827     10825     10828     10829
     10827     10825     10828     10830     10827     10825     10828     10831
     10828     10831     10834     10835     10828     10831     10834     10836
     10828     10831     10834     10837     10829     10828     10831     10832
     10829     10828     10831     10833     10829     10828     10831     10834
     10830     10828     10831     10832     10830     10828     10831     10833
     10830     10828     10831     10834     10831     10834     10837     10838
     10831     10834     10837     10839     10831     10834     10837     10840
     10832     10831     10834     10835     10832     10831     10834     10836
     10832     10831     10834     10837     10833     10831     10834     10835
     10833     10831     10834     10836     10833     10831     10834     10837
     10835     10834     10837     10838     10835     10834     10837     10839
     10835     10834     10837     10840     10836     10834     10837     10838
     10836     10834     10837     10839     10836     10834     10837     10840
     10841     10845     10847     10848     10841     10845     10847     10849
     10841     10845     10850     10851     10841     10845     10850     10852
     10841     10845     10850     10856     10842     10841     10845     10846
     10842     10841     10845     10847     10842     10841     10845     10850
     10843     10841     10845     10846     10843     10841     10845     10847
     10843     10841     10845     10850     10844     10841     10845     10846
     10844     10841     10845     10847     10844     10841     10845     10850
     10845     10850     10856     10853     10846     10845     10847     10848
     10846     10845     10847     10849     10846     10845     10850     10851
     10846     10845     10850     10852     10846     10845     10850     10856
     10847     10845     10850     10851     10847     10845     10850     10852
     10847     10845     10850     10856     10848     10847     10845     10850
     10849     10847     10845     10850     10850     10856     10853     10854
     10850     10856     10853     10855     10850     10856     10853     10857
     10851     10850     10856     10853     10852     10850     10856     10853
     10853     10857     10858     10859     10853     10857     10858     10860
     10853     10857     10858     10861     10854     10853     10857     10858
     10855     10853     10857     10858     10856     10853     10857     10858
     10857     10858     10861     10862     10857     10858     10861     10863
     10857     10858     10861     10869     10858     10861     10863     10864
     10858     10861     10869     10870     10858     10861     10869     10871
     10858     10861     10869     10872     10859     10858     10861     10862
     10859     10858     10861     10863     10859     10858     10861     10869
     10860     10858     10861     10862     10860     10858     10861     10863
     10860     10858     10861     10869     10861     10863     10864     10865
     10861     10863     10864     10866     10861     10869     10872     10873
     10862     10861     10863     10864     10862     10861     10869     10870
     10862     10861     10869     10871     10862     10861     10869     10872
     10863     10861     10869     10870     10863     10861     10869     10871
     10863     10861     10869     10872     10863     10864     10866     10867
     10863     10864     10866     10868     10863     10864     10866     10878
     10864     10863     10861     10869     10864     10866     10878     10879
     10864     10866     10878     10880     10864     10866     10878     10881
     10865     10864     10866     10867     10865     10864     10866     10868
     10865     10864     10866     10878     10866     10878     10881     10882
     10866     10878     10881     10883     10866     10878     10881     10884
     10867     10866     10878     10879     10867     10866     10878     10880
     10867     10866     10878     10881     10868     10866     10878     10879
     10868     10866     10878     10880     10868     10866     10878     10881
     10869     10872     10873     10874     10869     10872     10873     10875
     10870     10869     10872     10873     10871     10869     10872     10873
     10872     10873     10875     10876     10872     10873     10875     10877
     10872     10873     10875     10925     10873     10875     10925     10926
     10873     10875     10925     10927     10873     10875     10925     10928
     10874     10873     10875     10876     10874     10873     10875     10877
     10874     10873     10875     10925     10875     10925     10928     10929
     10875     10925     10928     10930     10875     10925     10928     10931
     10876     10875     10925     10926     10876     10875     10925     10927
     10876     10875     10925     10928     10877     10875     10925     10926
     10877     10875     10925     10927     10877     10875     10925     10928
     10878     10881     10884     10885     10878     10881     10884     10886
     10878     10881     10884     10887     10879     10878     10881     10882
     10879     10878     10881     10883     10879     10878     10881     10884
     10880     10878     10881     10882     10880     10878     10881     10883
     10880     10878     10881     10884     10881     10884     10887     10888
     10881     10884     10887     10889     10881     10884     10887     10890
     10882     10881     10884     10885     10882     10881     10884     10886
     10882     10881     10884     10887     10883     10881     10884     10885
     10883     10881     10884     10886     10883     10881     10884     10887
     10884     10887     10890     10891     10884     10887     10890     10892
     10884     10887     10890     10893     10885     10884     10887     10888
     10885     10884     10887     10889     10885     10884     10887     10890
     10886     10884     10887     10888     10886     10884     10887     10889
     10886     10884     10887     10890     10887     10890     10893     10894
     10887     10890     10893     10895     10887     10890     10893     10896
     10888     10887     10890     10891     10888     10887     10890     10892
     10888     10887     10890     10893     10889     10887     10890     10891
     10889     10887     10890     10892     10889     10887     10890     10893
     10890     10893     10896     10897     10890     10893     10896     10898
     10891     10890     10893     10894     10891     10890     10893     10895
     10891     10890     10893     10896     10892     10890     10893     10894
     10892     10890     10893     10895     10892     10890     10893     10896
     10893     10896     10898     10899     10893     10896     10898     10900
     10894     10893     10896     10897     10894     10893     10896     10898
     10895     10893     10896     10897     10895     10893     10896     10898
     10896     10898     10900     10901     10896     10898     10900     10902
     10896     10898     10900     10903     10897     10896     10898     10899
     10897     10896     10898     10900     10898     10900     10903     10904
     10898     10900     10903     10905     10898     10900     10903     10906
     10899     10898     10900     10901     10899     10898     10900     10902
     10899     10898     10900     10903     10900     10903     10906     10907
     10900     10903     10906     10908     10900     10903     10906     10909
     10901     10900     10903     10904     10901     10900     10903     10905
     10901     10900     10903     10906     10902     10900     10903     10904
     10902     10900     10903     10905     10902     10900     10903     10906
     10903     10906     10909     10910     10903     10906     10909     10911
     10903     10906     10909     10912     10904     10903     10906     10907
     10904     10903     10906     10908     10904     10903     10906     10909
     10905     10903     10906     10907     10905     10903     10906     10908
     10905     10903     10906     10909     10906     10909     10912     10913
     10906     10909     10912     10914     10906     10909     10912     10915
     10907     10906     10909     10910     10907     10906     10909     10911
     10907     10906     10909     10912     10908     10906     10909     10910
     10908     10906     10909     10911     10908     10906     10909     10912
     10909     10912     10915     10916     10909     10912     10915     10917
     10909     10912     10915     10918     10910     10909     10912     10913
     10910     10909     10912     10914     10910     10909     10912     10915
     10911     10909     10912     10913     10911     10909     10912     10914
     10911     10909     10912     10915     10912     10915     10918     10919
     10912     10915     10918     10920     10912     10915     10918     10921
     10913     10912     10915     10916     10913     10912     10915     10917
     10913     10912     10915     10918     10914     10912     10915     10916
     10914     10912     10915     10917     10914     10912     10915     10918
     10915     10918     10921     10922     10915     10918     10921     10923
     10915     10918     10921     10924     10916     10915     10918     10919
     10916     10915     10918     10920     10916     10915     10918     10921
     10917     10915     10918     10919     10917     10915     10918     10920
     10917     10915     10918     10921     10919     10918     10921     10922
     10919     10918     10921     10923     10919     10918     10921     10924
     10920     10918     10921     10922     10920     10918     10921     10923
     10920     10918     10921     10924     10925     10928     10931     10932
     10925     10928     10931     10933     10925     10928     10931     10934
     10926     10925     10928     10929     10926     10925     10928     10930
     10926     10925     10928     10931     10927     10925     10928     10929
     10927     10925     10928     10930     10927     10925     10928     10931
     10928     10931     10934     10935     10928     10931     10934     10936
     10928     10931     10934     10937     10929     10928     10931     10932
     10929     10928     10931     10933     10929     10928     10931     10934
     10930     10928     10931     10932     10930     10928     10931     10933
     10930     10928     10931     10934     10931     10934     10937     10938
     10931     10934     10937     10939     10931     10934     10937     10940
     10932     10931     10934     10935     10932     10931     10934     10936
     10932     10931     10934     10937     10933     10931     10934     10935
     10933     10931     10934     10936     10933     10931     10934     10937
     10934     10937     10940     10941     10934     10937     10940     10942
     10934     10937     10940     10943     10935     10934     10937     10938
     10935     10934     10937     10939     10935     10934     10937     10940
     10936     10934     10937     10938     10936     10934     10937     10939
     10936     10934     10937     10940     10937     10940     10943     10944
     10937     10940     10943     10945     10937     10940     10943     10946
     10938     10937     10940     10941     10938     10937     10940     10942
     10938     10937     10940     10943     10939     10937     10940     10941
     10939     10937     10940     10942     10939     10937     10940     10943
     10940     10943     10946     10947     10940     10943     10946     10948
     10940     10943     10946     10949     10941     10940     10943     10944
     10941     10940     10943     10945     10941     10940     10943     10946
     10942     10940     10943     10944     10942     10940     10943     10945
     10942     10940     10943     10946     10943     10946     10949     10950
     10943     10946     10949     10951     10943     10946     10949     10952
     10944     10943     10946     10947     10944     10943     10946     10948
     10944     10943     10946     10949     10945     10943     10946     10947
     10945     10943     10946     10948     10945     10943     10946     10949
     10946     10949     10952     10953     10946     10949     10952     10954
     10946     10949     10952     10955     10947     10946     10949     10950
     10947     10946     10949     10951     10947     10946     10949     10952
     10948     10946     10949     10950     10948     10946     10949     10951
     10948     10946     10949     10952     10949     10952     10955     10956
     10949     10952     10955     10957     10949     10952     10955     10958
     10950     10949     10952     10953     10950     10949     10952     10954
     10950     10949     10952     10955     10951     10949     10952     10953
     10951     10949     10952     10954     10951     10949     10952     10955
     10952     10955     10958     10959     10952     10955     10958     10960
     10952     10955     10958     10961     10953     10952     10955     10956
     10953     10952     10955     10957     10953     10952     10955     10958
     10954     10952     10955     10956     10954     10952     10955     10957
     10954     10952     10955     10958     10955     10958     10961     10962
     10955     10958     10961     10963     10955     10958     10961     10964
     10956     10955     10958     10959     10956     10955     10958     10960
     10956     10955     10958     10961     10957     10955     10958     10959
     10957     10955     10958     10960     10957     10955     10958     10961
     10958     10961     10964     10965     10958     10961     10964     10966
     10958     10961     10964     10967     10959     10958     10961     10962
     10959     10958     10961     10963     10959     10958     10961     10964
     10960     10958     10961     10962     10960     10958     10961     10963
     10960     10958     10961     10964     10962     10961     10964     10965
     10962     10961     10964     10966     10962     10961     10964     10967
     10963     10961     10964     10965     10963     10961     10964     10966
     10963     10961     10964     10967     10968     10969     10984     10985
     10968     10969     10984     10986     10968     10969     10984     10990
     10969     10968     10972     10973     10969     10968     10972     10974
     10969     10968     10972     10975     10969     10968     10976     10977
     10969     10968     10976     10978     10969     10968     10976     10979
     10969     10968     10980     10981     10969     10968     10980     10982
     10969     10968     10980     10983     10969     10984     10990     10987
     10970     10969     10968     10972     10970     10969     10968     10976
     10970     10969     10968     10980     10970     10969     10984     10985
     10970     10969     10984     10986     10970     10969     10984     10990
     10971     10969     10968     10972     10971     10969     10968     10976
     10971     10969     10968     10980     10971     10969     10984     10985
     10971     10969     10984     10986     10971     10969     10984     10990
     10972     10968     10969     10984     10972     10968     10976     10977
     10972     10968     10976     10978     10972     10968     10976     10979
     10972     10968     10980     10981     10972     10968     10980     10982
     10972     10968     10980     10983     10973     10972     10968     10976
     10973     10972     10968     10980     10974     10972     10968     10976
     10974     10972     10968     10980     10975     10972     10968     10976
     10975     10972     10968     10980     10976     10968     10969     10984
     10976     10968     10980     10981     10976     10968     10980     10982
     10976     10968     10980     10983     10977     10976     10968     10980
     10978     10976     10968     10980     10979     10976     10968     10980
     10980     10968     10969     10984     10984     10990     10987     10988
     10984     10990     10987     10989     10984     10990     10987     10991
     10985     10984     10990     10987     10986     10984     10990     10987
     10987     10991     10992     10993     10987     10991     10992     10994
     10987     10991     10992     10995     10988     10987     10991     10992
     10989     10987     10991     10992     10990     10987     10991     10992
     10991     10992     10995     10996     10991     10992     10995     10997
     10991     10992     10995     11003     10992     10995     10997     10998
     10992     10995     11003     11004     10992     10995     11003     11005
     10992     10995     11003     11006     10993     10992     10995     10996
     10993     10992     10995     10997     10993     10992     10995     11003
     10994     10992     10995     10996     10994     10992     10995     10997
     10994     10992     10995     11003     10995     10997     10998     10999
     10995     10997     10998     11000     10995     11003     11006     11007
     10996     10995     10997     10998     10996     10995     11003     11004
     10996     10995     11003     11005     10996     10995     11003     11006
     10997     10995     11003     11004     10997     10995     11003     11005
     10997     10995     11003     11006     10997     10998     11000     11001
     10997     10998     11000     11002     10997     10998     11000     11012
     10998     10997     10995     11003     10998     11000     11012     11013
     10998     11000     11012     11014     10998     11000     11012     11015
     10999     10998     11000     11001     10999     10998     11000     11002
     10999     10998     11000     11012     11000     11012     11015     11016
     11000     11012     11015     11017     11000     11012     11015     11018
     11001     11000     11012     11013     11001     11000     11012     11014
     11001     11000     11012     11015     11002     11000     11012     11013
     11002     11000     11012     11014     11002     11000     11012     11015
     11003     11006     11007     11008     11003     11006     11007     11009
     11004     11003     11006     11007     11005     11003     11006     11007
     11006     11007     11009     11010     11006     11007     11009     11011
     11006     11007     11009     11059     11007     11009     11059     11060
     11007     11009     11059     11061     11007     11009     11059     11062
     11008     11007     11009     11010     11008     11007     11009     11011
     11008     11007     11009     11059     11009     11059     11062     11063
     11009     11059     11062     11064     11009     11059     11062     11065
     11010     11009     11059     11060     11010     11009     11059     11061
     11010     11009     11059     11062     11011     11009     11059     11060
     11011     11009     11059     11061     11011     11009     11059     11062
     11012     11015     11018     11019     11012     11015     11018     11020
     11012     11015     11018     11021     11013     11012     11015     11016
     11013     11012     11015     11017     11013     11012     11015     11018
     11014     11012     11015     11016     11014     11012     11015     11017
     11014     11012     11015     11018     11015     11018     11021     11022
     11015     11018     11021     11023     11015     11018     11021     11024
     11016     11015     11018     11019     11016     11015     11018     11020
     11016     11015     11018     11021     11017     11015     11018     11019
     11017     11015     11018     11020     11017     11015     11018     11021
     11018     11021     11024     11025     11018     11021     11024     11026
     11018     11021     11024     11027     11019     11018     11021     11022
     11019     11018     11021     11023     11019     11018     11021     11024
     11020     11018     11021     11022     11020     11018     11021     11023
     11020     11018     11021     11024     11021     11024     11027     11028
     11021     11024     11027     11029     11021     11024     11027     11030
     11022     11021     11024     11025     11022     11021     11024     11026
     11022     11021     11024     11027     11023     11021     11024     11025
     11023     11021     11024     11026     11023     11021     11024     11027
     11024     11027     11030     11031     11024     11027     11030     11032
     11025     11024     11027     11028     11025     11024     11027     11029
     11025     11024     11027     11030     11026     11024     11027     11028
     11026     11024     11027     11029     11026     11024     11027     11030
     11027     11030     11032     11033     11027     11030     11032     11034
     11028     11027     11030     11031     11028     11027     11030     11032
     11029     11027     11030     11031     11029     11027     11030     11032
     11030     11032     11034     11035     11030     11032     11034     11036
     11030     11032     11034     11037     11031     11030     11032     11033
     11031     11030     11032     11034     11032     11034     11037     11038
     11032     11034     11037     11039     11032     11034     11037     11040
     11033     11032     11034     11035     11033     11032     11034     11036
     11033     11032     11034     11037     11034     11037     11040     11041
     11034     11037     11040     11042     11034     11037     11040     11043
     11035     11034     11037     11038     11035     11034     11037     11039
     11035     11034     11037     11040     11036     11034     11037     11038
     11036     11034     11037     11039     11036     11034     11037     11040
     11037     11040     11043     11044     11037     11040     11043     11045
     11037     11040     11043     11046     11038     11037     11040     11041
     11038     11037     11040     11042     11038     11037     11040     11043
     11039     11037     11040     11041     11039     11037     11040     11042
     11039     11037     11040     11043     11040     11043     11046     11047
     11040     11043     11046     11048     11040     11043     11046     11049
     11041     11040     11043     11044     11041     11040     11043     11045
     11041     11040     11043     11046     11042     11040     11043     11044
     11042     11040     11043     11045     11042     11040     11043     11046
     11043     11046     11049     11050     11043     11046     11049     11051
     11043     11046     11049     11052     11044     11043     11046     11047
     11044     11043     11046     11048     11044     11043     11046     11049
     11045     11043     11046     11047     11045     11043     11046     11048
     11045     11043     11046     11049     11046     11049     11052     11053
     11046     11049     11052     11054     11046     11049     11052     11055
     11047     11046     11049     11050     11047     11046     11049     11051
     11047     11046     11049     11052     11048     11046     11049     11050
     11048     11046     11049     11051     11048     11046     11049     11052
     11049     11052     11055     11056     11049     11052     11055     11057
     11049     11052     11055     11058     11050     11049     11052     11053
     11050     11049     11052     11054     11050     11049     11052     11055
     11051     11049     11052     11053     11051     11049     11052     11054
     11051     11049     11052     11055     11053     11052     11055     11056
     11053     11052     11055     11057     11053     11052     11055     11058
     11054     11052     11055     11056     11054     11052     11055     11057
     11054     11052     11055     11058     11059     11062     11065     11066
     11059     11062     11065     11067     11059     11062     11065     11068
     11060     11059     11062     11063     11060     11059     11062     11064
     11060     11059     11062     11065     11061     11059     11062     11063
     11061     11059     11062     11064     11061     11059     11062     11065
     11062     11065     11068     11069     11062     11065     11068     11070
     11062     11065     11068     11071     11063     11062     11065     11066
     11063     11062     11065     11067     11063     11062     11065     11068
     11064     11062     11065     11066     11064     11062     11065     11067
     11064     11062     11065     11068     11065     11068     11071     11072
     11065     11068     11071     11073     11065     11068     11071     11074
     11066     11065     11068     11069     11066     11065     11068     11070
     11066     11065     11068     11071     11067     11065     11068     11069
     11067     11065     11068     11070     11067     11065     11068     11071
     11068     11071     11074     11075     11068     11071     11074     11076
     11068     11071     11074     11077     11069     11068     11071     11072
     11069     11068     11071     11073     11069     11068     11071     11074
     11070     11068     11071     11072     11070     11068     11071     11073
     11070     11068     11071     11074     11071     11074     11077     11078
     11071     11074     11077     11079     11071     11074     11077     11080
     11072     11071     11074     11075     11072     11071     11074     11076
     11072     11071     11074     11077     11073     11071     11074     11075
     11073     11071     11074     11076     11073     11071     11074     11077
     11074     11077     11080     11081     11074     11077     11080     11082
     11074     11077     11080     11083     11075     11074     11077     11078
     11075     11074     11077     11079     11075     11074     11077     11080
     11076     11074     11077     11078     11076     11074     11077     11079
     11076     11074     11077     11080     11077     11080     11083     11084
     11077     11080     11083     11085     11077     11080     11083     11086
     11078     11077     11080     11081     11078     11077     11080     11082
     11078     11077     11080     11083     11079     11077     11080     11081
     11079     11077     11080     11082     11079     11077     11080     11083
     11080     11083     11086     11087     11080     11083     11086     11088
     11080     11083     11086     11089     11081     11080     11083     11084
     11081     11080     11083     11085     11081     11080     11083     11086
     11082     11080     11083     11084     11082     11080     11083     11085
     11082     11080     11083     11086     11083     11086     11089     11090
     11083     11086     11089     11091     11083     11086     11089     11092
     11084     11083     11086     11087     11084     11083     11086     11088
     11084     11083     11086     11089     11085     11083     11086     11087
     11085     11083     11086     11088     11085     11083     11086     11089
     11086     11089     11092     11093     11086     11089     11092     11094
     11086     11089     11092     11095     11087     11086     11089     11090
     11087     11086     11089     11091     11087     11086     11089     11092
     11088     11086     11089     11090     11088     11086     11089     11091
     11088     11086     11089     11092     11089     11092     11095     11096
     11089     11092     11095     11097     11089     11092     11095     11098
     11090     11089     11092     11093     11090     11089     11092     11094
     11090     11089     11092     11095     11091     11089     11092     11093
     11091     11089     11092     11094     11091     11089     11092     11095
     11092     11095     11098     11099     11092     11095     11098     11100
     11092     11095     11098     11101     11093     11092     11095     11096
     11093     11092     11095     11097     11093     11092     11095     11098
     11094     11092     11095     11096     11094     11092     11095     11097
     11094     11092     11095     11098     11096     11095     11098     11099
     11096     11095     11098     11100     11096     11095     11098     11101
     11097     11095     11098     11099     11097     11095     11098     11100
     11097     11095     11098     11101     11102     11103     11118     11119
     11102     11103     11118     11120     11102     11103     11118     11124
     11103     11102     11106     11107     11103     11102     11106     11108
     11103     11102     11106     11109     11103     11102     11110     11111
     11103     11102     11110     11112     11103     11102     11110     11113
     11103     11102     11114     11115     11103     11102     11114     11116
     11103     11102     11114     11117     11103     11118     11124     11121
     11104     11103     11102     11106     11104     11103     11102     11110
     11104     11103     11102     11114     11104     11103     11118     11119
     11104     11103     11118     11120     11104     11103     11118     11124
     11105     11103     11102     11106     11105     11103     11102     11110
     11105     11103     11102     11114     11105     11103     11118     11119
     11105     11103     11118     11120     11105     11103     11118     11124
     11106     11102     11103     11118     11106     11102     11110     11111
     11106     11102     11110     11112     11106     11102     11110     11113
     11106     11102     11114     11115     11106     11102     11114     11116
     11106     11102     11114     11117     11107     11106     11102     11110
     11107     11106     11102     11114     11108     11106     11102     11110
     11108     11106     11102     11114     11109     11106     11102     11110
     11109     11106     11102     11114     11110     11102     11103     11118
     11110     11102     11114     11115     11110     11102     11114     11116
     11110     11102     11114     11117     11111     11110     11102     11114
     11112     11110     11102     11114     11113     11110     11102     11114
     11114     11102     11103     11118     11118     11124     11121     11122
     11118     11124     11121     11123     11118     11124     11121     11125
     11119     11118     11124     11121     11120     11118     11124     11121
     11121     11125     11126     11127     11121     11125     11126     11128
     11121     11125     11126     11129     11122     11121     11125     11126
     11123     11121     11125     11126     11124     11121     11125     11126
     11125     11126     11129     11130     11125     11126     11129     11131
     11125     11126     11129     11137     11126     11129     11131     11132
     11126     11129     11137     11138     11126     11129     11137     11139
     11126     11129     11137     11140     11127     11126     11129     11130
     11127     11126     11129     11131     11127     11126     11129     11137
     11128     11126     11129     11130     11128     11126     11129     11131
     11128     11126     11129     11137     11129     11131     11132     11133
     11129     11131     11132     11134     11129     11137     11140     11141
     11130     11129     11131     11132     11130     11129     11137     11138
     11130     11129     11137     11139     11130     11129     11137     11140
     11131     11129     11137     11138     11131     11129     11137     11139
     11131     11129     11137     11140     11131     11132     11134     11135
     11131     11132     11134     11136     11131     11132     11134     11146
     11132     11131     11129     11137     11132     11134     11146     11147
     11132     11134     11146     11148     11132     11134     11146     11149
     11133     11132     11134     11135     11133     11132     11134     11136
     11133     11132     11134     11146     11134     11146     11149     11150
     11134     11146     11149     11151     11134     11146     11149     11152
     11135     11134     11146     11147     11135     11134     11146     11148
     11135     11134     11146     11149     11136     11134     11146     11147
     11136     11134     11146     11148     11136     11134     11146     11149
     11137     11140     11141     11142     11137     11140     11141     11143
     11138     11137     11140     11141     11139     11137     11140     11141
     11140     11141     11143     11144     11140     11141     11143     11145
     11140     11141     11143     11193     11141     11143     11193     11194
     11141     11143     11193     11195     11141     11143     11193     11196
     11142     11141     11143     11144     11142     11141     11143     11145
     11142     11141     11143     11193     11143     11193     11196     11197
     11143     11193     11196     11198     11143     11193     11196     11199
     11144     11143     11193     11194     11144     11143     11193     11195
     11144     11143     11193     11196     11145     11143     11193     11194
     11145     11143     11193     11195     11145     11143     11193     11196
     11146     11149     11152     11153     11146     11149     11152     11154
     11146     11149     11152     11155     11147     11146     11149     11150
     11147     11146     11149     11151     11147     11146     11149     11152
     11148     11146     11149     11150     11148     11146     11149     11151
     11148     11146     11149     11152     11149     11152     11155     11156
     11149     11152     11155     11157     11149     11152     11155     11158
     11150     11149     11152     11153     11150     11149     11152     11154
     11150     11149     11152     11155     11151     11149     11152     11153
     11151     11149     11152     11154     11151     11149     11152     11155
     11152     11155     11158     11159     11152     11155     11158     11160
     11152     11155     11158     11161     11153     11152     11155     11156
     11153     11152     11155     11157     11153     11152     11155     11158
     11154     11152     11155     11156     11154     11152     11155     11157
     11154     11152     11155     11158     11155     11158     11161     11162
     11155     11158     11161     11163     11155     11158     11161     11164
     11156     11155     11158     11159     11156     11155     11158     11160
     11156     11155     11158     11161     11157     11155     11158     11159
     11157     11155     11158     11160     11157     11155     11158     11161
     11158     11161     11164     11165     11158     11161     11164     11166
     11159     11158     11161     11162     11159     11158     11161     11163
     11159     11158     11161     11164     11160     11158     11161     11162
     11160     11158     11161     11163     11160     11158     11161     11164
     11161     11164     11166     11167     11161     11164     11166     11168
     11162     11161     11164     11165     11162     11161     11164     11166
     11163     11161     11164     11165     11163     11161     11164     11166
     11164     11166     11168     11169     11164     11166     11168     11170
     11164     11166     11168     11171     11165     11164     11166     11167
     11165     11164     11166     11168     11166     11168     11171     11172
     11166     11168     11171     11173     11166     11168     11171     11174
     11167     11166     11168     11169     11167     11166     11168     11170
     11167     11166     11168     11171     11168     11171     11174     11175
     11168     11171     11174     11176     11168     11171     11174     11177
     11169     11168     11171     11172     11169     11168     11171     11173
     11169     11168     11171     11174     11170     11168     11171     11172
     11170     11168     11171     11173     11170     11168     11171     11174
     11171     11174     11177     11178     11171     11174     11177     11179
     11171     11174     11177     11180     11172     11171     11174     11175
     11172     11171     11174     11176     11172     11171     11174     11177
     11173     11171     11174     11175     11173     11171     11174     11176
     11173     11171     11174     11177     11174     11177     11180     11181
     11174     11177     11180     11182     11174     11177     11180     11183
     11175     11174     11177     11178     11175     11174     11177     11179
     11175     11174     11177     11180     11176     11174     11177     11178
     11176     11174     11177     11179     11176     11174     11177     11180
     11177     11180     11183     11184     11177     11180     11183     11185
     11177     11180     11183     11186     11178     11177     11180     11181
     11178     11177     11180     11182     11178     11177     11180     11183
     11179     11177     11180     11181     11179     11177     11180     11182
     11179     11177     11180     11183     11180     11183     11186     11187
     11180     11183     11186     11188     11180     11183     11186     11189
     11181     11180     11183     11184     11181     11180     11183     11185
     11181     11180     11183     11186     11182     11180     11183     11184
     11182     11180     11183     11185     11182     11180     11183     11186
     11183     11186     11189     11190     11183     11186     11189     11191
     11183     11186     11189     11192     11184     11183     11186     11187
     11184     11183     11186     11188     11184     11183     11186     11189
     11185     11183     11186     11187     11185     11183     11186     11188
     11185     11183     11186     11189     11187     11186     11189     11190
     11187     11186     11189     11191     11187     11186     11189     11192
     11188     11186     11189     11190     11188     11186     11189     11191
     11188     11186     11189     11192     11193     11196     11199     11200
     11193     11196     11199     11201     11193     11196     11199     11202
     11194     11193     11196     11197     11194     11193     11196     11198
     11194     11193     11196     11199     11195     11193     11196     11197
     11195     11193     11196     11198     11195     11193     11196     11199
     11196     11199     11202     11203     11196     11199     11202     11204
     11196     11199     11202     11205     11197     11196     11199     11200
     11197     11196     11199     11201     11197     11196     11199     11202
     11198     11196     11199     11200     11198     11196     11199     11201
     11198     11196     11199     11202     11199     11202     11205     11206
     11199     11202     11205     11207     11199     11202     11205     11208
     11200     11199     11202     11203     11200     11199     11202     11204
     11200     11199     11202     11205     11201     11199     11202     11203
     11201     11199     11202     11204     11201     11199     11202     11205
     11202     11205     11208     11209     11202     11205     11208     11210
     11202     11205     11208     11211     11203     11202     11205     11206
     11203     11202     11205     11207     11203     11202     11205     11208
     11204     11202     11205     11206     11204     11202     11205     11207
     11204     11202     11205     11208     11205     11208     11211     11212
     11205     11208     11211     11213     11205     11208     11211     11214
     11206     11205     11208     11209     11206     11205     11208     11210
     11206     11205     11208     11211     11207     11205     11208     11209
     11207     11205     11208     11210     11207     11205     11208     11211
     11208     11211     11214     11215     11208     11211     11214     11216
     11208     11211     11214     11217     11209     11208     11211     11212
     11209     11208     11211     11213     11209     11208     11211     11214
     11210     11208     11211     11212     11210     11208     11211     11213
     11210     11208     11211     11214     11211     11214     11217     11218
     11211     11214     11217     11219     11211     11214     11217     11220
     11212     11211     11214     11215     11212     11211     11214     11216
     11212     11211     11214     11217     11213     11211     11214     11215
     11213     11211     11214     11216     11213     11211     11214     11217
     11214     11217     11220     11221     11214     11217     11220     11222
     11214     11217     11220     11223     11215     11214     11217     11218
     11215     11214     11217     11219     11215     11214     11217     11220
     11216     11214     11217     11218     11216     11214     11217     11219
     11216     11214     11217     11220     11217     11220     11223     11224
     11217     11220     11223     11225     11217     11220     11223     11226
     11218     11217     11220     11221     11218     11217     11220     11222
     11218     11217     11220     11223     11219     11217     11220     11221
     11219     11217     11220     11222     11219     11217     11220     11223
     11220     11223     11226     11227     11220     11223     11226     11228
     11220     11223     11226     11229     11221     11220     11223     11224
     11221     11220     11223     11225     11221     11220     11223     11226
     11222     11220     11223     11224     11222     11220     11223     11225
     11222     11220     11223     11226     11223     11226     11229     11230
     11223     11226     11229     11231     11223     11226     11229     11232
     11224     11223     11226     11227     11224     11223     11226     11228
     11224     11223     11226     11229     11225     11223     11226     11227
     11225     11223     11226     11228     11225     11223     11226     11229
     11226     11229     11232     11233     11226     11229     11232     11234
     11226     11229     11232     11235     11227     11226     11229     11230
     11227     11226     11229     11231     11227     11226     11229     11232
     11228     11226     11229     11230     11228     11226     11229     11231
     11228     11226     11229     11232     11230     11229     11232     11233
     11230     11229     11232     11234     11230     11229     11232     11235
     11231     11229     11232     11233     11231     11229     11232     11234
     11231     11229     11232     11235     11236     11237     11252     11253
     11236     11237     11252     11254     11236     11237     11252     11258
     11237     11236     11240     11241     11237     11236     11240     11242
     11237     11236     11240     11243     11237     11236     11244     11245
     11237     11236     11244     11246     11237     11236     11244     11247
     11237     11236     11248     11249     11237     11236     11248     11250
     11237     11236     11248     11251     11237     11252     11258     11255
     11238     11237     11236     11240     11238     11237     11236     11244
     11238     11237     11236     11248     11238     11237     11252     11253
     11238     11237     11252     11254     11238     11237     11252     11258
     11239     11237     11236     11240     11239     11237     11236     11244
     11239     11237     11236     11248     11239     11237     11252     11253
     11239     11237     11252     11254     11239     11237     11252     11258
     11240     11236     11237     11252     11240     11236     11244     11245
     11240     11236     11244     11246     11240     11236     11244     11247
     11240     11236     11248     11249     11240     11236     11248     11250
     11240     11236     11248     11251     11241     11240     11236     11244
     11241     11240     11236     11248     11242     11240     11236     11244
     11242     11240     11236     11248     11243     11240     11236     11244
     11243     11240     11236     11248     11244     11236     11237     11252
     11244     11236     11248     11249     11244     11236     11248     11250
     11244     11236     11248     11251     11245     11244     11236     11248
     11246     11244     11236     11248     11247     11244     11236     11248
     11248     11236     11237     11252     11252     11258     11255     11256
     11252     11258     11255     11257     11252     11258     11255     11259
     11253     11252     11258     11255     11254     11252     11258     11255
     11255     11259     11260     11261     11255     11259     11260     11262
     11255     11259     11260     11263     11256     11255     11259     11260
     11257     11255     11259     11260     11258     11255     11259     11260
     11259     11260     11263     11264     11259     11260     11263     11265
     11259     11260     11263     11271     11260     11263     11265     11266
     11260     11263     11271     11272     11260     11263     11271     11273
     11260     11263     11271     11274     11261     11260     11263     11264
     11261     11260     11263     11265     11261     11260     11263     11271
     11262     11260     11263     11264     11262     11260     11263     11265
     11262     11260     11263     11271     11263     11265     11266     11267
     11263     11265     11266     11268     11263     11271     11274     11275
     11264     11263     11265     11266     11264     11263     11271     11272
     11264     11263     11271     11273     11264     11263     11271     11274
     11265     11263     11271     11272     11265     11263     11271     11273
     11265     11263     11271     11274     11265     11266     11268     11269
     11265     11266     11268     11270     11265     11266     11268     11280
     11266     11265     11263     11271     11266     11268     11280     11281
     11266     11268     11280     11282     11266     11268     11280     11283
     11267     11266     11268     11269     11267     11266     11268     11270
     11267     11266     11268     11280     11268     11280     11283     11284
     11268     11280     11283     11285     11268     11280     11283     11286
     11269     11268     11280     11281     11269     11268     11280     11282
     11269     11268     11280     11283     11270     11268     11280     11281
     11270     11268     11280     11282     11270     11268     11280     11283
     11271     11274     11275     11276     11271     11274     11275     11277
     11272     11271     11274     11275     11273     11271     11274     11275
     11274     11275     11277     11278     11274     11275     11277     11279
     11274     11275     11277     11327     11275     11277     11327     11328
     11275     11277     11327     11329     11275     11277     11327     11330
     11276     11275     11277     11278     11276     11275     11277     11279
     11276     11275     11277     11327     11277     11327     11330     11331
     11277     11327     11330     11332     11277     11327     11330     11333
     11278     11277     11327     11328     11278     11277     11327     11329
     11278     11277     11327     11330     11279     11277     11327     11328
     11279     11277     11327     11329     11279     11277     11327     11330
     11280     11283     11286     11287     11280     11283     11286     11288
     11280     11283     11286     11289     11281     11280     11283     11284
     11281     11280     11283     11285     11281     11280     11283     11286
     11282     11280     11283     11284     11282     11280     11283     11285
     11282     11280     11283     11286     11283     11286     11289     11290
     11283     11286     11289     11291     11283     11286     11289     11292
     11284     11283     11286     11287     11284     11283     11286     11288
     11284     11283     11286     11289     11285     11283     11286     11287
     11285     11283     11286     11288     11285     11283     11286     11289
     11286     11289     11292     11293     11286     11289     11292     11294
     11286     11289     11292     11295     11287     11286     11289     11290
     11287     11286     11289     11291     11287     11286     11289     11292
     11288     11286     11289     11290     11288     11286     11289     11291
     11288     11286     11289     11292     11289     11292     11295     11296
     11289     11292     11295     11297     11289     11292     11295     11298
     11290     11289     11292     11293     11290     11289     11292     11294
     11290     11289     11292     11295     11291     11289     11292     11293
     11291     11289     11292     11294     11291     11289     11292     11295
     11292     11295     11298     11299     11292     11295     11298     11300
     11293     11292     11295     11296     11293     11292     11295     11297
     11293     11292     11295     11298     11294     11292     11295     11296
     11294     11292     11295     11297     11294     11292     11295     11298
     11295     11298     11300     11301     11295     11298     11300     11302
     11296     11295     11298     11299     11296     11295     11298     11300
     11297     11295     11298     11299     11297     11295     11298     11300
     11298     11300     11302     11303     11298     11300     11302     11304
     11298     11300     11302     11305     11299     11298     11300     11301
     11299     11298     11300     11302     11300     11302     11305     11306
     11300     11302     11305     11307     11300     11302     11305     11308
     11301     11300     11302     11303     11301     11300     11302     11304
     11301     11300     11302     11305     11302     11305     11308     11309
     11302     11305     11308     11310     11302     11305     11308     11311
     11303     11302     11305     11306     11303     11302     11305     11307
     11303     11302     11305     11308     11304     11302     11305     11306
     11304     11302     11305     11307     11304     11302     11305     11308
     11305     11308     11311     11312     11305     11308     11311     11313
     11305     11308     11311     11314     11306     11305     11308     11309
     11306     11305     11308     11310     11306     11305     11308     11311
     11307     11305     11308     11309     11307     11305     11308     11310
     11307     11305     11308     11311     11308     11311     11314     11315
     11308     11311     11314     11316     11308     11311     11314     11317
     11309     11308     11311     11312     11309     11308     11311     11313
     11309     11308     11311     11314     11310     11308     11311     11312
     11310     11308     11311     11313     11310     11308     11311     11314
     11311     11314     11317     11318     11311     11314     11317     11319
     11311     11314     11317     11320     11312     11311     11314     11315
     11312     11311     11314     11316     11312     11311     11314     11317
     11313     11311     11314     11315     11313     11311     11314     11316
     11313     11311     11314     11317     11314     11317     11320     11321
     11314     11317     11320     11322     11314     11317     11320     11323
     11315     11314     11317     11318     11315     11314     11317     11319
     11315     11314     11317     11320     11316     11314     11317     11318
     11316     11314     11317     11319     11316     11314     11317     11320
     11317     11320     11323     11324     11317     11320     11323     11325
     11317     11320     11323     11326     11318     11317     11320     11321
     11318     11317     11320     11322     11318     11317     11320     11323
     11319     11317     11320     11321     11319     11317     11320     11322
     11319     11317     11320     11323     11321     11320     11323     11324
     11321     11320     11323     11325     11321     11320     11323     11326
     11322     11320     11323     11324     11322     11320     11323     11325
     11322     11320     11323     11326     11327     11330     11333     11334
     11327     11330     11333     11335     11327     11330     11333     11336
     11328     11327     11330     11331     11328     11327     11330     11332
     11328     11327     11330     11333     11329     11327     11330     11331
     11329     11327     11330     11332     11329     11327     11330     11333
     11330     11333     11336     11337     11330     11333     11336     11338
     11330     11333     11336     11339     11331     11330     11333     11334
     11331     11330     11333     11335     11331     11330     11333     11336
     11332     11330     11333     11334     11332     11330     11333     11335
     11332     11330     11333     11336     11333     11336     11339     11340
     11333     11336     11339     11341     11333     11336     11339     11342
     11334     11333     11336     11337     11334     11333     11336     11338
     11334     11333     11336     11339     11335     11333     11336     11337
     11335     11333     11336     11338     11335     11333     11336     11339
     11336     11339     11342     11343     11336     11339     11342     11344
     11336     11339     11342     11345     11337     11336     11339     11340
     11337     11336     11339     11341     11337     11336     11339     11342
     11338     11336     11339     11340     11338     11336     11339     11341
     11338     11336     11339     11342     11339     11342     11345     11346
     11339     11342     11345     11347     11339     11342     11345     11348
     11340     11339     11342     11343     11340     11339     11342     11344
     11340     11339     11342     11345     11341     11339     11342     11343
     11341     11339     11342     11344     11341     11339     11342     11345
     11342     11345     11348     11349     11342     11345     11348     11350
     11342     11345     11348     11351     11343     11342     11345     11346
     11343     11342     11345     11347     11343     11342     11345     11348
     11344     11342     11345     11346     11344     11342     11345     11347
     11344     11342     11345     11348     11345     11348     11351     11352
     11345     11348     11351     11353     11345     11348     11351     11354
     11346     11345     11348     11349     11346     11345     11348     11350
     11346     11345     11348     11351     11347     11345     11348     11349
     11347     11345     11348     11350     11347     11345     11348     11351
     11348     11351     11354     11355     11348     11351     11354     11356
     11348     11351     11354     11357     11349     11348     11351     11352
     11349     11348     11351     11353     11349     11348     11351     11354
     11350     11348     11351     11352     11350     11348     11351     11353
     11350     11348     11351     11354     11351     11354     11357     11358
     11351     11354     11357     11359     11351     11354     11357     11360
     11352     11351     11354     11355     11352     11351     11354     11356
     11352     11351     11354     11357     11353     11351     11354     11355
     11353     11351     11354     11356     11353     11351     11354     11357
     11354     11357     11360     11361     11354     11357     11360     11362
     11354     11357     11360     11363     11355     11354     11357     11358
     11355     11354     11357     11359     11355     11354     11357     11360
     11356     11354     11357     11358     11356     11354     11357     11359
     11356     11354     11357     11360     11357     11360     11363     11364
     11357     11360     11363     11365     11357     11360     11363     11366
     11358     11357     11360     11361     11358     11357     11360     11362
     11358     11357     11360     11363     11359     11357     11360     11361
     11359     11357     11360     11362     11359     11357     11360     11363
     11360     11363     11366     11367     11360     11363     11366     11368
     11360     11363     11366     11369     11361     11360     11363     11364
     11361     11360     11363     11365     11361     11360     11363     11366
     11362     11360     11363     11364     11362     11360     11363     11365
     11362     11360     11363     11366     11364     11363     11366     11367
     11364     11363     11366     11368     11364     11363     11366     11369
     11365     11363     11366     11367     11365     11363     11366     11368
     11365     11363     11366     11369     11370     11374     11376     11377
     11370     11374     11376     11378     11370     11374     11379     11380
     11370     11374     11379     11381     11370     11374     11379     11385
     11371     11370     11374     11375     11371     11370     11374     11376
     11371     11370     11374     11379     11372     11370     11374     11375
     11372     11370     11374     11376     11372     11370     11374     11379
     11373     11370     11374     11375     11373     11370     11374     11376
     11373     11370     11374     11379     11374     11379     11385     11382
     11375     11374     11376     11377     11375     11374     11376     11378
     11375     11374     11379     11380     11375     11374     11379     11381
     11375     11374     11379     11385     11376     11374     11379     11380
     11376     11374     11379     11381     11376     11374     11379     11385
     11377     11376     11374     11379     11378     11376     11374     11379
     11379     11385     11382     11383     11379     11385     11382     11384
     11379     11385     11382     11386     11380     11379     11385     11382
     11381     11379     11385     11382     11382     11386     11387     11388
     11382     11386     11387     11389     11382     11386     11387     11390
     11383     11382     11386     11387     11384     11382     11386     11387
     11385     11382     11386     11387     11386     11387     11390     11391
     11386     11387     11390     11392     11386     11387     11390     11398
     11387     11390     11392     11393     11387     11390     11398     11399
     11387     11390     11398     11400     11387     11390     11398     11401
     11388     11387     11390     11391     11388     11387     11390     11392
     11388     11387     11390     11398     11389     11387     11390     11391
     11389     11387     11390     11392     11389     11387     11390     11398
     11390     11392     11393     11394     11390     11392     11393     11395
     11390     11398     11401     11402     11391     11390     11392     11393
     11391     11390     11398     11399     11391     11390     11398     11400
     11391     11390     11398     11401     11392     11390     11398     11399
     11392     11390     11398     11400     11392     11390     11398     11401
     11392     11393     11395     11396     11392     11393     11395     11397
     11392     11393     11395     11407     11393     11392     11390     11398
     11393     11395     11407     11408     11393     11395     11407     11409
     11393     11395     11407     11410     11394     11393     11395     11396
     11394     11393     11395     11397     11394     11393     11395     11407
     11395     11407     11410     11411     11395     11407     11410     11412
     11395     11407     11410     11413     11396     11395     11407     11408
     11396     11395     11407     11409     11396     11395     11407     11410
     11397     11395     11407     11408     11397     11395     11407     11409
     11397     11395     11407     11410     11398     11401     11402     11403
     11398     11401     11402     11404     11399     11398     11401     11402
     11400     11398     11401     11402     11401     11402     11404     11405
     11401     11402     11404     11406     11401     11402     11404     11454
     11402     11404     11454     11455     11402     11404     11454     11456
     11402     11404     11454     11457     11403     11402     11404     11405
     11403     11402     11404     11406     11403     11402     11404     11454
     11404     11454     11457     11458     11404     11454     11457     11459
     11404     11454     11457     11460     11405     11404     11454     11455
     11405     11404     11454     11456     11405     11404     11454     11457
     11406     11404     11454     11455     11406     11404     11454     11456
     11406     11404     11454     11457     11407     11410     11413     11414
     11407     11410     11413     11415     11407     11410     11413     11416
     11408     11407     11410     11411     11408     11407     11410     11412
     11408     11407     11410     11413     11409     11407     11410     11411
     11409     11407     11410     11412     11409     11407     11410     11413
     11410     11413     11416     11417     11410     11413     11416     11418
     11410     11413     11416     11419     11411     11410     11413     11414
     11411     11410     11413     11415     11411     11410     11413     11416
     11412     11410     11413     11414     11412     11410     11413     11415
     11412     11410     11413     11416     11413     11416     11419     11420
     11413     11416     11419     11421     11413     11416     11419     11422
     11414     11413     11416     11417     11414     11413     11416     11418
     11414     11413     11416     11419     11415     11413     11416     11417
     11415     11413     11416     11418     11415     11413     11416     11419
     11416     11419     11422     11423     11416     11419     11422     11424
     11416     11419     11422     11425     11417     11416     11419     11420
     11417     11416     11419     11421     11417     11416     11419     11422
     11418     11416     11419     11420     11418     11416     11419     11421
     11418     11416     11419     11422     11419     11422     11425     11426
     11419     11422     11425     11427     11420     11419     11422     11423
     11420     11419     11422     11424     11420     11419     11422     11425
     11421     11419     11422     11423     11421     11419     11422     11424
     11421     11419     11422     11425     11422     11425     11427     11428
     11422     11425     11427     11429     11423     11422     11425     11426
     11423     11422     11425     11427     11424     11422     11425     11426
     11424     11422     11425     11427     11425     11427     11429     11430
     11425     11427     11429     11431     11425     11427     11429     11432
     11426     11425     11427     11428     11426     11425     11427     11429
     11427     11429     11432     11433     11427     11429     11432     11434
     11427     11429     11432     11435     11428     11427     11429     11430
     11428     11427     11429     11431     11428     11427     11429     11432
     11429     11432     11435     11436     11429     11432     11435     11437
     11429     11432     11435     11438     11430     11429     11432     11433
     11430     11429     11432     11434     11430     11429     11432     11435
     11431     11429     11432     11433     11431     11429     11432     11434
     11431     11429     11432     11435     11432     11435     11438     11439
     11432     11435     11438     11440     11432     11435     11438     11441
     11433     11432     11435     11436     11433     11432     11435     11437
     11433     11432     11435     11438     11434     11432     11435     11436
     11434     11432     11435     11437     11434     11432     11435     11438
     11435     11438     11441     11442     11435     11438     11441     11443
     11435     11438     11441     11444     11436     11435     11438     11439
     11436     11435     11438     11440     11436     11435     11438     11441
     11437     11435     11438     11439     11437     11435     11438     11440
     11437     11435     11438     11441     11438     11441     11444     11445
     11438     11441     11444     11446     11438     11441     11444     11447
     11439     11438     11441     11442     11439     11438     11441     11443
     11439     11438     11441     11444     11440     11438     11441     11442
     11440     11438     11441     11443     11440     11438     11441     11444
     11441     11444     11447     11448     11441     11444     11447     11449
     11441     11444     11447     11450     11442     11441     11444     11445
     11442     11441     11444     11446     11442     11441     11444     11447
     11443     11441     11444     11445     11443     11441     11444     11446
     11443     11441     11444     11447     11444     11447     11450     11451
     11444     11447     11450     11452     11444     11447     11450     11453
     11445     11444     11447     11448     11445     11444     11447     11449
     11445     11444     11447     11450     11446     11444     11447     11448
     11446     11444     11447     11449     11446     11444     11447     11450
     11448     11447     11450     11451     11448     11447     11450     11452
     11448     11447     11450     11453     11449     11447     11450     11451
     11449     11447     11450     11452     11449     11447     11450     11453
     11454     11457     11460     11461     11454     11457     11460     11462
     11454     11457     11460     11463     11455     11454     11457     11458
     11455     11454     11457     11459     11455     11454     11457     11460
     11456     11454     11457     11458     11456     11454     11457     11459
     11456     11454     11457     11460     11457     11460     11463     11464
     11457     11460     11463     11465     11457     11460     11463     11466
     11458     11457     11460     11461     11458     11457     11460     11462
     11458     11457     11460     11463     11459     11457     11460     11461
     11459     11457     11460     11462     11459     11457     11460     11463
     11460     11463     11466     11467     11460     11463     11466     11468
     11460     11463     11466     11469     11461     11460     11463     11464
     11461     11460     11463     11465     11461     11460     11463     11466
     11462     11460     11463     11464     11462     11460     11463     11465
     11462     11460     11463     11466     11463     11466     11469     11470
     11463     11466     11469     11471     11463     11466     11469     11472
     11464     11463     11466     11467     11464     11463     11466     11468
     11464     11463     11466     11469     11465     11463     11466     11467
     11465     11463     11466     11468     11465     11463     11466     11469
     11466     11469     11472     11473     11466     11469     11472     11474
     11466     11469     11472     11475     11467     11466     11469     11470
     11467     11466     11469     11471     11467     11466     11469     11472
     11468     11466     11469     11470     11468     11466     11469     11471
     11468     11466     11469     11472     11469     11472     11475     11476
     11469     11472     11475     11477     11469     11472     11475     11478
     11470     11469     11472     11473     11470     11469     11472     11474
     11470     11469     11472     11475     11471     11469     11472     11473
     11471     11469     11472     11474     11471     11469     11472     11475
     11472     11475     11478     11479     11472     11475     11478     11480
     11472     11475     11478     11481     11473     11472     11475     11476
     11473     11472     11475     11477     11473     11472     11475     11478
     11474     11472     11475     11476     11474     11472     11475     11477
     11474     11472     11475     11478     11475     11478     11481     11482
     11475     11478     11481     11483     11475     11478     11481     11484
     11476     11475     11478     11479     11476     11475     11478     11480
     11476     11475     11478     11481     11477     11475     11478     11479
     11477     11475     11478     11480     11477     11475     11478     11481
     11478     11481     11484     11485     11478     11481     11484     11486
     11478     11481     11484     11487     11479     11478     11481     11482
     11479     11478     11481     11483     11479     11478     11481     11484
     11480     11478     11481     11482     11480     11478     11481     11483
     11480     11478     11481     11484     11481     11484     11487     11488
     11481     11484     11487     11489     11481     11484     11487     11490
     11482     11481     11484     11485     11482     11481     11484     11486
     11482     11481     11484     11487     11483     11481     11484     11485
     11483     11481     11484     11486     11483     11481     11484     11487
     11484     11487     11490     11491     11484     11487     11490     11492
     11484     11487     11490     11493     11485     11484     11487     11488
     11485     11484     11487     11489     11485     11484     11487     11490
     11486     11484     11487     11488     11486     11484     11487     11489
     11486     11484     11487     11490     11487     11490     11493     11494
     11487     11490     11493     11495     11487     11490     11493     11496
     11488     11487     11490     11491     11488     11487     11490     11492
     11488     11487     11490     11493     11489     11487     11490     11491
     11489     11487     11490     11492     11489     11487     11490     11493
     11491     11490     11493     11494     11491     11490     11493     11495
     11491     11490     11493     11496     11492     11490     11493     11494
     11492     11490     11493     11495     11492     11490     11493     11496
     11497     11498     11513     11514     11497     11498     11513     11515
     11497     11498     11513     11519     11498     11497     11501     11502
     11498     11497     11501     11503     11498     11497     11501     11504
     11498     11497     11505     11506     11498     11497     11505     11507
     11498     11497     11505     11508     11498     11497     11509     11510
     11498     11497     11509     11511     11498     11497     11509     11512
     11498     11513     11519     11516     11499     11498     11497     11501
     11499     11498     11497     11505     11499     11498     11497     11509
     11499     11498     11513     11514     11499     11498     11513     11515
     11499     11498     11513     11519     11500     11498     11497     11501
     11500     11498     11497     11505     11500     11498     11497     11509
     11500     11498     11513     11514     11500     11498     11513     11515
     11500     11498     11513     11519     11501     11497     11498     11513
     11501     11497     11505     11506     11501     11497     11505     11507
     11501     11497     11505     11508     11501     11497     11509     11510
     11501     11497     11509     11511     11501     11497     11509     11512
     11502     11501     11497     11505     11502     11501     11497     11509
     11503     11501     11497     11505     11503     11501     11497     11509
     11504     11501     11497     11505     11504     11501     11497     11509
     11505     11497     11498     11513     11505     11497     11509     11510
     11505     11497     11509     11511     11505     11497     11509     11512
     11506     11505     11497     11509     11507     11505     11497     11509
     11508     11505     11497     11509     11509     11497     11498     11513
     11513     11519     11516     11517     11513     11519     11516     11518
     11513     11519     11516     11520     11514     11513     11519     11516
     11515     11513     11519     11516     11516     11520     11521     11522
     11516     11520     11521     11523     11516     11520     11521     11524
     11517     11516     11520     11521     11518     11516     11520     11521
     11519     11516     11520     11521     11520     11521     11524     11525
     11520     11521     11524     11526     11520     11521     11524     11532
     11521     11524     11526     11527     11521     11524     11532     11533
     11521     11524     11532     11534     11521     11524     11532     11535
     11522     11521     11524     11525     11522     11521     11524     11526
     11522     11521     11524     11532     11523     11521     11524     11525
     11523     11521     11524     11526     11523     11521     11524     11532
     11524     11526     11527     11528     11524     11526     11527     11529
     11524     11532     11535     11536     11525     11524     11526     11527
     11525     11524     11532     11533     11525     11524     11532     11534
     11525     11524     11532     11535     11526     11524     11532     11533
     11526     11524     11532     11534     11526     11524     11532     11535
     11526     11527     11529     11530     11526     11527     11529     11531
     11526     11527     11529     11541     11527     11526     11524     11532
     11527     11529     11541     11542     11527     11529     11541     11543
     11527     11529     11541     11544     11528     11527     11529     11530
     11528     11527     11529     11531     11528     11527     11529     11541
     11529     11541     11544     11545     11529     11541     11544     11546
     11529     11541     11544     11547     11530     11529     11541     11542
     11530     11529     11541     11543     11530     11529     11541     11544
     11531     11529     11541     11542     11531     11529     11541     11543
     11531     11529     11541     11544     11532     11535     11536     11537
     11532     11535     11536     11538     11533     11532     11535     11536
     11534     11532     11535     11536     11535     11536     11538     11539
     11535     11536     11538     11540     11535     11536     11538     11588
     11536     11538     11588     11589     11536     11538     11588     11590
     11536     11538     11588     11591     11537     11536     11538     11539
     11537     11536     11538     11540     11537     11536     11538     11588
     11538     11588     11591     11592     11538     11588     11591     11593
     11538     11588     11591     11594     11539     11538     11588     11589
     11539     11538     11588     11590     11539     11538     11588     11591
     11540     11538     11588     11589     11540     11538     11588     11590
     11540     11538     11588     11591     11541     11544     11547     11548
     11541     11544     11547     11549     11541     11544     11547     11550
     11542     11541     11544     11545     11542     11541     11544     11546
     11542     11541     11544     11547     11543     11541     11544     11545
     11543     11541     11544     11546     11543     11541     11544     11547
     11544     11547     11550     11551     11544     11547     11550     11552
     11544     11547     11550     11553     11545     11544     11547     11548
     11545     11544     11547     11549     11545     11544     11547     11550
     11546     11544     11547     11548     11546     11544     11547     11549
     11546     11544     11547     11550     11547     11550     11553     11554
     11547     11550     11553     11555     11547     11550     11553     11556
     11548     11547     11550     11551     11548     11547     11550     11552
     11548     11547     11550     11553     11549     11547     11550     11551
     11549     11547     11550     11552     11549     11547     11550     11553
     11550     11553     11556     11557     11550     11553     11556     11558
     11550     11553     11556     11559     11551     11550     11553     11554
     11551     11550     11553     11555     11551     11550     11553     11556
     11552     11550     11553     11554     11552     11550     11553     11555
     11552     11550     11553     11556     11553     11556     11559     11560
     11553     11556     11559     11561     11554     11553     11556     11557
     11554     11553     11556     11558     11554     11553     11556     11559
     11555     11553     11556     11557     11555     11553     11556     11558
     11555     11553     11556     11559     11556     11559     11561     11562
     11556     11559     11561     11563     11557     11556     11559     11560
     11557     11556     11559     11561     11558     11556     11559     11560
     11558     11556     11559     11561     11559     11561     11563     11564
     11559     11561     11563     11565     11559     11561     11563     11566
     11560     11559     11561     11562     11560     11559     11561     11563
     11561     11563     11566     11567     11561     11563     11566     11568
     11561     11563     11566     11569     11562     11561     11563     11564
     11562     11561     11563     11565     11562     11561     11563     11566
     11563     11566     11569     11570     11563     11566     11569     11571
     11563     11566     11569     11572     11564     11563     11566     11567
     11564     11563     11566     11568     11564     11563     11566     11569
     11565     11563     11566     11567     11565     11563     11566     11568
     11565     11563     11566     11569     11566     11569     11572     11573
     11566     11569     11572     11574     11566     11569     11572     11575
     11567     11566     11569     11570     11567     11566     11569     11571
     11567     11566     11569     11572     11568     11566     11569     11570
     11568     11566     11569     11571     11568     11566     11569     11572
     11569     11572     11575     11576     11569     11572     11575     11577
     11569     11572     11575     11578     11570     11569     11572     11573
     11570     11569     11572     11574     11570     11569     11572     11575
     11571     11569     11572     11573     11571     11569     11572     11574
     11571     11569     11572     11575     11572     11575     11578     11579
     11572     11575     11578     11580     11572     11575     11578     11581
     11573     11572     11575     11576     11573     11572     11575     11577
     11573     11572     11575     11578     11574     11572     11575     11576
     11574     11572     11575     11577     11574     11572     11575     11578
     11575     11578     11581     11582     11575     11578     11581     11583
     11575     11578     11581     11584     11576     11575     11578     11579
     11576     11575     11578     11580     11576     11575     11578     11581
     11577     11575     11578     11579     11577     11575     11578     11580
     11577     11575     11578     11581     11578     11581     11584     11585
     11578     11581     11584     11586     11578     11581     11584     11587
     11579     11578     11581     11582     11579     11578     11581     11583
     11579     11578     11581     11584     11580     11578     11581     11582
     11580     11578     11581     11583     11580     11578     11581     11584
     11582     11581     11584     11585     11582     11581     11584     11586
     11582     11581     11584     11587     11583     11581     11584     11585
     11583     11581     11584     11586     11583     11581     11584     11587
     11588     11591     11594     11595     11588     11591     11594     11596
     11588     11591     11594     11597     11589     11588     11591     11592
     11589     11588     11591     11593     11589     11588     11591     11594
     11590     11588     11591     11592     11590     11588     11591     11593
     11590     11588     11591     11594     11591     11594     11597     11598
     11591     11594     11597     11599     11591     11594     11597     11600
     11592     11591     11594     11595     11592     11591     11594     11596
     11592     11591     11594     11597     11593     11591     11594     11595
     11593     11591     11594     11596     11593     11591     11594     11597
     11594     11597     11600     11601     11594     11597     11600     11602
     11594     11597     11600     11603     11595     11594     11597     11598
     11595     11594     11597     11599     11595     11594     11597     11600
     11596     11594     11597     11598     11596     11594     11597     11599
     11596     11594     11597     11600     11597     11600     11603     11604
     11597     11600     11603     11605     11597     11600     11603     11606
     11598     11597     11600     11601     11598     11597     11600     11602
     11598     11597     11600     11603     11599     11597     11600     11601
     11599     11597     11600     11602     11599     11597     11600     11603
     11600     11603     11606     11607     11600     11603     11606     11608
     11600     11603     11606     11609     11601     11600     11603     11604
     11601     11600     11603     11605     11601     11600     11603     11606
     11602     11600     11603     11604     11602     11600     11603     11605
     11602     11600     11603     11606     11603     11606     11609     11610
     11603     11606     11609     11611     11603     11606     11609     11612
     11604     11603     11606     11607     11604     11603     11606     11608
     11604     11603     11606     11609     11605     11603     11606     11607
     11605     11603     11606     11608     11605     11603     11606     11609
     11606     11609     11612     11613     11606     11609     11612     11614
     11606     11609     11612     11615     11607     11606     11609     11610
     11607     11606     11609     11611     11607     11606     11609     11612
     11608     11606     11609     11610     11608     11606     11609     11611
     11608     11606     11609     11612     11609     11612     11615     11616
     11609     11612     11615     11617     11609     11612     11615     11618
     11610     11609     11612     11613     11610     11609     11612     11614
     11610     11609     11612     11615     11611     11609     11612     11613
     11611     11609     11612     11614     11611     11609     11612     11615
     11612     11615     11618     11619     11612     11615     11618     11620
     11612     11615     11618     11621     11613     11612     11615     11616
     11613     11612     11615     11617     11613     11612     11615     11618
     11614     11612     11615     11616     11614     11612     11615     11617
     11614     11612     11615     11618     11615     11618     11621     11622
     11615     11618     11621     11623     11615     11618     11621     11624
     11616     11615     11618     11619     11616     11615     11618     11620
     11616     11615     11618     11621     11617     11615     11618     11619
     11617     11615     11618     11620     11617     11615     11618     11621
     11618     11621     11624     11625     11618     11621     11624     11626
     11618     11621     11624     11627     11619     11618     11621     11622
     11619     11618     11621     11623     11619     11618     11621     11624
     11620     11618     11621     11622     11620     11618     11621     11623
     11620     11618     11621     11624     11621     11624     11627     11628
     11621     11624     11627     11629     11621     11624     11627     11630
     11622     11621     11624     11625     11622     11621     11624     11626
     11622     11621     11624     11627     11623     11621     11624     11625
     11623     11621     11624     11626     11623     11621     11624     11627
     11625     11624     11627     11628     11625     11624     11627     11629
     11625     11624     11627     11630     11626     11624     11627     11628
     11626     11624     11627     11629     11626     11624     11627     11630
     11631     11632     11647     11648     11631     11632     11647     11649
     11631     11632     11647     11653     11632     11631     11635     11636
     11632     11631     11635     11637     11632     11631     11635     11638
     11632     11631     11639     11640     11632     11631     11639     11641
     11632     11631     11639     11642     11632     11631     11643     11644
     11632     11631     11643     11645     11632     11631     11643     11646
     11632     11647     11653     11650     11633     11632     11631     11635
     11633     11632     11631     11639     11633     11632     11631     11643
     11633     11632     11647     11648     11633     11632     11647     11649
     11633     11632     11647     11653     11634     11632     11631     11635
     11634     11632     11631     11639     11634     11632     11631     11643
     11634     11632     11647     11648     11634     11632     11647     11649
     11634     11632     11647     11653     11635     11631     11632     11647
     11635     11631     11639     11640     11635     11631     11639     11641
     11635     11631     11639     11642     11635     11631     11643     11644
     11635     11631     11643     11645     11635     11631     11643     11646
     11636     11635     11631     11639     11636     11635     11631     11643
     11637     11635     11631     11639     11637     11635     11631     11643
     11638     11635     11631     11639     11638     11635     11631     11643
     11639     11631     11632     11647     11639     11631     11643     11644
     11639     11631     11643     11645     11639     11631     11643     11646
     11640     11639     11631     11643     11641     11639     11631     11643
     11642     11639     11631     11643     11643     11631     11632     11647
     11647     11653     11650     11651     11647     11653     11650     11652
     11647     11653     11650     11654     11648     11647     11653     11650
     11649     11647     11653     11650     11650     11654     11655     11656
     11650     11654     11655     11657     11650     11654     11655     11658
     11651     11650     11654     11655     11652     11650     11654     11655
     11653     11650     11654     11655     11654     11655     11658     11659
     11654     11655     11658     11660     11654     11655     11658     11666
     11655     11658     11660     11661     11655     11658     11666     11667
     11655     11658     11666     11668     11655     11658     11666     11669
     11656     11655     11658     11659     11656     11655     11658     11660
     11656     11655     11658     11666     11657     11655     11658     11659
     11657     11655     11658     11660     11657     11655     11658     11666
     11658     11660     11661     11662     11658     11660     11661     11663
     11658     11666     11669     11670     11659     11658     11660     11661
     11659     11658     11666     11667     11659     11658     11666     11668
     11659     11658     11666     11669     11660     11658     11666     11667
     11660     11658     11666     11668     11660     11658     11666     11669
     11660     11661     11663     11664     11660     11661     11663     11665
     11660     11661     11663     11675     11661     11660     11658     11666
     11661     11663     11675     11676     11661     11663     11675     11677
     11661     11663     11675     11678     11662     11661     11663     11664
     11662     11661     11663     11665     11662     11661     11663     11675
     11663     11675     11678     11679     11663     11675     11678     11680
     11663     11675     11678     11681     11664     11663     11675     11676
     11664     11663     11675     11677     11664     11663     11675     11678
     11665     11663     11675     11676     11665     11663     11675     11677
     11665     11663     11675     11678     11666     11669     11670     11671
     11666     11669     11670     11672     11667     11666     11669     11670
     11668     11666     11669     11670     11669     11670     11672     11673
     11669     11670     11672     11674     11669     11670     11672     11722
     11670     11672     11722     11723     11670     11672     11722     11724
     11670     11672     11722     11725     11671     11670     11672     11673
     11671     11670     11672     11674     11671     11670     11672     11722
     11672     11722     11725     11726     11672     11722     11725     11727
     11672     11722     11725     11728     11673     11672     11722     11723
     11673     11672     11722     11724     11673     11672     11722     11725
     11674     11672     11722     11723     11674     11672     11722     11724
     11674     11672     11722     11725     11675     11678     11681     11682
     11675     11678     11681     11683     11675     11678     11681     11684
     11676     11675     11678     11679     11676     11675     11678     11680
     11676     11675     11678     11681     11677     11675     11678     11679
     11677     11675     11678     11680     11677     11675     11678     11681
     11678     11681     11684     11685     11678     11681     11684     11686
     11678     11681     11684     11687     11679     11678     11681     11682
     11679     11678     11681     11683     11679     11678     11681     11684
     11680     11678     11681     11682     11680     11678     11681     11683
     11680     11678     11681     11684     11681     11684     11687     11688
     11681     11684     11687     11689     11681     11684     11687     11690
     11682     11681     11684     11685     11682     11681     11684     11686
     11682     11681     11684     11687     11683     11681     11684     11685
     11683     11681     11684     11686     11683     11681     11684     11687
     11684     11687     11690     11691     11684     11687     11690     11692
     11684     11687     11690     11693     11685     11684     11687     11688
     11685     11684     11687     11689     11685     11684     11687     11690
     11686     11684     11687     11688     11686     11684     11687     11689
     11686     11684     11687     11690     11687     11690     11693     11694
     11687     11690     11693     11695     11688     11687     11690     11691
     11688     11687     11690     11692     11688     11687     11690     11693
     11689     11687     11690     11691     11689     11687     11690     11692
     11689     11687     11690     11693     11690     11693     11695     11696
     11690     11693     11695     11697     11691     11690     11693     11694
     11691     11690     11693     11695     11692     11690     11693     11694
     11692     11690     11693     11695     11693     11695     11697     11698
     11693     11695     11697     11699     11693     11695     11697     11700
     11694     11693     11695     11696     11694     11693     11695     11697
     11695     11697     11700     11701     11695     11697     11700     11702
     11695     11697     11700     11703     11696     11695     11697     11698
     11696     11695     11697     11699     11696     11695     11697     11700
     11697     11700     11703     11704     11697     11700     11703     11705
     11697     11700     11703     11706     11698     11697     11700     11701
     11698     11697     11700     11702     11698     11697     11700     11703
     11699     11697     11700     11701     11699     11697     11700     11702
     11699     11697     11700     11703     11700     11703     11706     11707
     11700     11703     11706     11708     11700     11703     11706     11709
     11701     11700     11703     11704     11701     11700     11703     11705
     11701     11700     11703     11706     11702     11700     11703     11704
     11702     11700     11703     11705     11702     11700     11703     11706
     11703     11706     11709     11710     11703     11706     11709     11711
     11703     11706     11709     11712     11704     11703     11706     11707
     11704     11703     11706     11708     11704     11703     11706     11709
     11705     11703     11706     11707     11705     11703     11706     11708
     11705     11703     11706     11709     11706     11709     11712     11713
     11706     11709     11712     11714     11706     11709     11712     11715
     11707     11706     11709     11710     11707     11706     11709     11711
     11707     11706     11709     11712     11708     11706     11709     11710
     11708     11706     11709     11711     11708     11706     11709     11712
     11709     11712     11715     11716     11709     11712     11715     11717
     11709     11712     11715     11718     11710     11709     11712     11713
     11710     11709     11712     11714     11710     11709     11712     11715
     11711     11709     11712     11713     11711     11709     11712     11714
     11711     11709     11712     11715     11712     11715     11718     11719
     11712     11715     11718     11720     11712     11715     11718     11721
     11713     11712     11715     11716     11713     11712     11715     11717
     11713     11712     11715     11718     11714     11712     11715     11716
     11714     11712     11715     11717     11714     11712     11715     11718
     11716     11715     11718     11719     11716     11715     11718     11720
     11716     11715     11718     11721     11717     11715     11718     11719
     11717     11715     11718     11720     11717     11715     11718     11721
     11722     11725     11728     11729     11722     11725     11728     11730
     11722     11725     11728     11731     11723     11722     11725     11726
     11723     11722     11725     11727     11723     11722     11725     11728
     11724     11722     11725     11726     11724     11722     11725     11727
     11724     11722     11725     11728     11725     11728     11731     11732
     11725     11728     11731     11733     11725     11728     11731     11734
     11726     11725     11728     11729     11726     11725     11728     11730
     11726     11725     11728     11731     11727     11725     11728     11729
     11727     11725     11728     11730     11727     11725     11728     11731
     11728     11731     11734     11735     11728     11731     11734     11736
     11728     11731     11734     11737     11729     11728     11731     11732
     11729     11728     11731     11733     11729     11728     11731     11734
     11730     11728     11731     11732     11730     11728     11731     11733
     11730     11728     11731     11734     11731     11734     11737     11738
     11731     11734     11737     11739     11731     11734     11737     11740
     11732     11731     11734     11735     11732     11731     11734     11736
     11732     11731     11734     11737     11733     11731     11734     11735
     11733     11731     11734     11736     11733     11731     11734     11737
     11734     11737     11740     11741     11734     11737     11740     11742
     11734     11737     11740     11743     11735     11734     11737     11738
     11735     11734     11737     11739     11735     11734     11737     11740
     11736     11734     11737     11738     11736     11734     11737     11739
     11736     11734     11737     11740     11737     11740     11743     11744
     11737     11740     11743     11745     11737     11740     11743     11746
     11738     11737     11740     11741     11738     11737     11740     11742
     11738     11737     11740     11743     11739     11737     11740     11741
     11739     11737     11740     11742     11739     11737     11740     11743
     11740     11743     11746     11747     11740     11743     11746     11748
     11740     11743     11746     11749     11741     11740     11743     11744
     11741     11740     11743     11745     11741     11740     11743     11746
     11742     11740     11743     11744     11742     11740     11743     11745
     11742     11740     11743     11746     11743     11746     11749     11750
     11743     11746     11749     11751     11743     11746     11749     11752
     11744     11743     11746     11747     11744     11743     11746     11748
     11744     11743     11746     11749     11745     11743     11746     11747
     11745     11743     11746     11748     11745     11743     11746     11749
     11746     11749     11752     11753     11746     11749     11752     11754
     11746     11749     11752     11755     11747     11746     11749     11750
     11747     11746     11749     11751     11747     11746     11749     11752
     11748     11746     11749     11750     11748     11746     11749     11751
     11748     11746     11749     11752     11749     11752     11755     11756
     11749     11752     11755     11757     11749     11752     11755     11758
     11750     11749     11752     11753     11750     11749     11752     11754
     11750     11749     11752     11755     11751     11749     11752     11753
     11751     11749     11752     11754     11751     11749     11752     11755
     11752     11755     11758     11759     11752     11755     11758     11760
     11752     11755     11758     11761     11753     11752     11755     11756
     11753     11752     11755     11757     11753     11752     11755     11758
     11754     11752     11755     11756     11754     11752     11755     11757
     11754     11752     11755     11758     11755     11758     11761     11762
     11755     11758     11761     11763     11755     11758     11761     11764
     11756     11755     11758     11759     11756     11755     11758     11760
     11756     11755     11758     11761     11757     11755     11758     11759
     11757     11755     11758     11760     11757     11755     11758     11761
     11759     11758     11761     11762     11759     11758     11761     11763
     11759     11758     11761     11764     11760     11758     11761     11762
     11760     11758     11761     11763     11760     11758     11761     11764
     11765     11766     11781     11782     11765     11766     11781     11783
     11765     11766     11781     11787     11766     11765     11769     11770
     11766     11765     11769     11771     11766     11765     11769     11772
     11766     11765     11773     11774     11766     11765     11773     11775
     11766     11765     11773     11776     11766     11765     11777     11778
     11766     11765     11777     11779     11766     11765     11777     11780
     11766     11781     11787     11784     11767     11766     11765     11769
     11767     11766     11765     11773     11767     11766     11765     11777
     11767     11766     11781     11782     11767     11766     11781     11783
     11767     11766     11781     11787     11768     11766     11765     11769
     11768     11766     11765     11773     11768     11766     11765     11777
     11768     11766     11781     11782     11768     11766     11781     11783
     11768     11766     11781     11787     11769     11765     11766     11781
     11769     11765     11773     11774     11769     11765     11773     11775
     11769     11765     11773     11776     11769     11765     11777     11778
     11769     11765     11777     11779     11769     11765     11777     11780
     11770     11769     11765     11773     11770     11769     11765     11777
     11771     11769     11765     11773     11771     11769     11765     11777
     11772     11769     11765     11773     11772     11769     11765     11777
     11773     11765     11766     11781     11773     11765     11777     11778
     11773     11765     11777     11779     11773     11765     11777     11780
     11774     11773     11765     11777     11775     11773     11765     11777
     11776     11773     11765     11777     11777     11765     11766     11781
     11781     11787     11784     11785     11781     11787     11784     11786
     11781     11787     11784     11788     11782     11781     11787     11784
     11783     11781     11787     11784     11784     11788     11789     11790
     11784     11788     11789     11791     11784     11788     11789     11792
     11785     11784     11788     11789     11786     11784     11788     11789
     11787     11784     11788     11789     11788     11789     11792     11793
     11788     11789     11792     11794     11788     11789     11792     11800
     11789     11792     11794     11795     11789     11792     11800     11801
     11789     11792     11800     11802     11789     11792     11800     11803
     11790     11789     11792     11793     11790     11789     11792     11794
     11790     11789     11792     11800     11791     11789     11792     11793
     11791     11789     11792     11794     11791     11789     11792     11800
     11792     11794     11795     11796     11792     11794     11795     11797
     11792     11800     11803     11804     11793     11792     11794     11795
     11793     11792     11800     11801     11793     11792     11800     11802
     11793     11792     11800     11803     11794     11792     11800     11801
     11794     11792     11800     11802     11794     11792     11800     11803
     11794     11795     11797     11798     11794     11795     11797     11799
     11794     11795     11797     11809     11795     11794     11792     11800
     11795     11797     11809     11810     11795     11797     11809     11811
     11795     11797     11809     11812     11796     11795     11797     11798
     11796     11795     11797     11799     11796     11795     11797     11809
     11797     11809     11812     11813     11797     11809     11812     11814
     11797     11809     11812     11815     11798     11797     11809     11810
     11798     11797     11809     11811     11798     11797     11809     11812
     11799     11797     11809     11810     11799     11797     11809     11811
     11799     11797     11809     11812     11800     11803     11804     11805
     11800     11803     11804     11806     11801     11800     11803     11804
     11802     11800     11803     11804     11803     11804     11806     11807
     11803     11804     11806     11808     11803     11804     11806     11856
     11804     11806     11856     11857     11804     11806     11856     11858
     11804     11806     11856     11859     11805     11804     11806     11807
     11805     11804     11806     11808     11805     11804     11806     11856
     11806     11856     11859     11860     11806     11856     11859     11861
     11806     11856     11859     11862     11807     11806     11856     11857
     11807     11806     11856     11858     11807     11806     11856     11859
     11808     11806     11856     11857     11808     11806     11856     11858
     11808     11806     11856     11859     11809     11812     11815     11816
     11809     11812     11815     11817     11809     11812     11815     11818
     11810     11809     11812     11813     11810     11809     11812     11814
     11810     11809     11812     11815     11811     11809     11812     11813
     11811     11809     11812     11814     11811     11809     11812     11815
     11812     11815     11818     11819     11812     11815     11818     11820
     11812     11815     11818     11821     11813     11812     11815     11816
     11813     11812     11815     11817     11813     11812     11815     11818
     11814     11812     11815     11816     11814     11812     11815     11817
     11814     11812     11815     11818     11815     11818     11821     11822
     11815     11818     11821     11823     11815     11818     11821     11824
     11816     11815     11818     11819     11816     11815     11818     11820
     11816     11815     11818     11821     11817     11815     11818     11819
     11817     11815     11818     11820     11817     11815     11818     11821
     11818     11821     11824     11825     11818     11821     11824     11826
     11818     11821     11824     11827     11819     11818     11821     11822
     11819     11818     11821     11823     11819     11818     11821     11824
     11820     11818     11821     11822     11820     11818     11821     11823
     11820     11818     11821     11824     11821     11824     11827     11828
     11821     11824     11827     11829     11822     11821     11824     11825
     11822     11821     11824     11826     11822     11821     11824     11827
     11823     11821     11824     11825     11823     11821     11824     11826
     11823     11821     11824     11827     11824     11827     11829     11830
     11824     11827     11829     11831     11825     11824     11827     11828
     11825     11824     11827     11829     11826     11824     11827     11828
     11826     11824     11827     11829     11827     11829     11831     11832
     11827     11829     11831     11833     11827     11829     11831     11834
     11828     11827     11829     11830     11828     11827     11829     11831
     11829     11831     11834     11835     11829     11831     11834     11836
     11829     11831     11834     11837     11830     11829     11831     11832
     11830     11829     11831     11833     11830     11829     11831     11834
     11831     11834     11837     11838     11831     11834     11837     11839
     11831     11834     11837     11840     11832     11831     11834     11835
     11832     11831     11834     11836     11832     11831     11834     11837
     11833     11831     11834     11835     11833     11831     11834     11836
     11833     11831     11834     11837     11834     11837     11840     11841
     11834     11837     11840     11842     11834     11837     11840     11843
     11835     11834     11837     11838     11835     11834     11837     11839
     11835     11834     11837     11840     11836     11834     11837     11838
     11836     11834     11837     11839     11836     11834     11837     11840
     11837     11840     11843     11844     11837     11840     11843     11845
     11837     11840     11843     11846     11838     11837     11840     11841
     11838     11837     11840     11842     11838     11837     11840     11843
     11839     11837     11840     11841     11839     11837     11840     11842
     11839     11837     11840     11843     11840     11843     11846     11847
     11840     11843     11846     11848     11840     11843     11846     11849
     11841     11840     11843     11844     11841     11840     11843     11845
     11841     11840     11843     11846     11842     11840     11843     11844
     11842     11840     11843     11845     11842     11840     11843     11846
     11843     11846     11849     11850     11843     11846     11849     11851
     11843     11846     11849     11852     11844     11843     11846     11847
     11844     11843     11846     11848     11844     11843     11846     11849
     11845     11843     11846     11847     11845     11843     11846     11848
     11845     11843     11846     11849     11846     11849     11852     11853
     11846     11849     11852     11854     11846     11849     11852     11855
     11847     11846     11849     11850     11847     11846     11849     11851
     11847     11846     11849     11852     11848     11846     11849     11850
     11848     11846     11849     11851     11848     11846     11849     11852
     11850     11849     11852     11853     11850     11849     11852     11854
     11850     11849     11852     11855     11851     11849     11852     11853
     11851     11849     11852     11854     11851     11849     11852     11855
     11856     11859     11862     11863     11856     11859     11862     11864
     11856     11859     11862     11865     11857     11856     11859     11860
     11857     11856     11859     11861     11857     11856     11859     11862
     11858     11856     11859     11860     11858     11856     11859     11861
     11858     11856     11859     11862     11859     11862     11865     11866
     11859     11862     11865     11867     11859     11862     11865     11868
     11860     11859     11862     11863     11860     11859     11862     11864
     11860     11859     11862     11865     11861     11859     11862     11863
     11861     11859     11862     11864     11861     11859     11862     11865
     11862     11865     11868     11869     11862     11865     11868     11870
     11862     11865     11868     11871     11863     11862     11865     11866
     11863     11862     11865     11867     11863     11862     11865     11868
     11864     11862     11865     11866     11864     11862     11865     11867
     11864     11862     11865     11868     11865     11868     11871     11872
     11865     11868     11871     11873     11865     11868     11871     11874
     11866     11865     11868     11869     11866     11865     11868     11870
     11866     11865     11868     11871     11867     11865     11868     11869
     11867     11865     11868     11870     11867     11865     11868     11871
     11868     11871     11874     11875     11868     11871     11874     11876
     11868     11871     11874     11877     11869     11868     11871     11872
     11869     11868     11871     11873     11869     11868     11871     11874
     11870     11868     11871     11872     11870     11868     11871     11873
     11870     11868     11871     11874     11871     11874     11877     11878
     11871     11874     11877     11879     11871     11874     11877     11880
     11872     11871     11874     11875     11872     11871     11874     11876
     11872     11871     11874     11877     11873     11871     11874     11875
     11873     11871     11874     11876     11873     11871     11874     11877
     11874     11877     11880     11881     11874     11877     11880     11882
     11874     11877     11880     11883     11875     11874     11877     11878
     11875     11874     11877     11879     11875     11874     11877     11880
     11876     11874     11877     11878     11876     11874     11877     11879
     11876     11874     11877     11880     11877     11880     11883     11884
     11877     11880     11883     11885     11877     11880     11883     11886
     11878     11877     11880     11881     11878     11877     11880     11882
     11878     11877     11880     11883     11879     11877     11880     11881
     11879     11877     11880     11882     11879     11877     11880     11883
     11880     11883     11886     11887     11880     11883     11886     11888
     11880     11883     11886     11889     11881     11880     11883     11884
     11881     11880     11883     11885     11881     11880     11883     11886
     11882     11880     11883     11884     11882     11880     11883     11885
     11882     11880     11883     11886     11883     11886     11889     11890
     11883     11886     11889     11891     11883     11886     11889     11892
     11884     11883     11886     11887     11884     11883     11886     11888
     11884     11883     11886     11889     11885     11883     11886     11887
     11885     11883     11886     11888     11885     11883     11886     11889
     11886     11889     11892     11893     11886     11889     11892     11894
     11886     11889     11892     11895     11887     11886     11889     11890
     11887     11886     11889     11891     11887     11886     11889     11892
     11888     11886     11889     11890     11888     11886     11889     11891
     11888     11886     11889     11892     11889     11892     11895     11896
     11889     11892     11895     11897     11889     11892     11895     11898
     11890     11889     11892     11893     11890     11889     11892     11894
     11890     11889     11892     11895     11891     11889     11892     11893
     11891     11889     11892     11894     11891     11889     11892     11895
     11893     11892     11895     11896     11893     11892     11895     11897
     11893     11892     11895     11898     11894     11892     11895     11896
     11894     11892     11895     11897     11894     11892     11895     11898
     11899     11900     11915     11916     11899     11900     11915     11917
     11899     11900     11915     11921     11900     11899     11903     11904
     11900     11899     11903     11905     11900     11899     11903     11906
     11900     11899     11907     11908     11900     11899     11907     11909
     11900     11899     11907     11910     11900     11899     11911     11912
     11900     11899     11911     11913     11900     11899     11911     11914
     11900     11915     11921     11918     11901     11900     11899     11903
     11901     11900     11899     11907     11901     11900     11899     11911
     11901     11900     11915     11916     11901     11900     11915     11917
     11901     11900     11915     11921     11902     11900     11899     11903
     11902     11900     11899     11907     11902     11900     11899     11911
     11902     11900     11915     11916     11902     11900     11915     11917
     11902     11900     11915     11921     11903     11899     11900     11915
     11903     11899     11907     11908     11903     11899     11907     11909
     11903     11899     11907     11910     11903     11899     11911     11912
     11903     11899     11911     11913     11903     11899     11911     11914
     11904     11903     11899     11907     11904     11903     11899     11911
     11905     11903     11899     11907     11905     11903     11899     11911
     11906     11903     11899     11907     11906     11903     11899     11911
     11907     11899     11900     11915     11907     11899     11911     11912
     11907     11899     11911     11913     11907     11899     11911     11914
     11908     11907     11899     11911     11909     11907     11899     11911
     11910     11907     11899     11911     11911     11899     11900     11915
     11915     11921     11918     11919     11915     11921     11918     11920
     11915     11921     11918     11922     11916     11915     11921     11918
     11917     11915     11921     11918     11918     11922     11923     11924
     11918     11922     11923     11925     11918     11922     11923     11926
     11919     11918     11922     11923     11920     11918     11922     11923
     11921     11918     11922     11923     11922     11923     11926     11927
     11922     11923     11926     11928     11922     11923     11926     11934
     11923     11926     11928     11929     11923     11926     11934     11935
     11923     11926     11934     11936     11923     11926     11934     11937
     11924     11923     11926     11927     11924     11923     11926     11928
     11924     11923     11926     11934     11925     11923     11926     11927
     11925     11923     11926     11928     11925     11923     11926     11934
     11926     11928     11929     11930     11926     11928     11929     11931
     11926     11934     11937     11938     11927     11926     11928     11929
     11927     11926     11934     11935     11927     11926     11934     11936
     11927     11926     11934     11937     11928     11926     11934     11935
     11928     11926     11934     11936     11928     11926     11934     11937
     11928     11929     11931     11932     11928     11929     11931     11933
     11928     11929     11931     11943     11929     11928     11926     11934
     11929     11931     11943     11944     11929     11931     11943     11945
     11929     11931     11943     11946     11930     11929     11931     11932
     11930     11929     11931     11933     11930     11929     11931     11943
     11931     11943     11946     11947     11931     11943     11946     11948
     11931     11943     11946     11949     11932     11931     11943     11944
     11932     11931     11943     11945     11932     11931     11943     11946
     11933     11931     11943     11944     11933     11931     11943     11945
     11933     11931     11943     11946     11934     11937     11938     11939
     11934     11937     11938     11940     11935     11934     11937     11938
     11936     11934     11937     11938     11937     11938     11940     11941
     11937     11938     11940     11942     11937     11938     11940     11990
     11938     11940     11990     11991     11938     11940     11990     11992
     11938     11940     11990     11993     11939     11938     11940     11941
     11939     11938     11940     11942     11939     11938     11940     11990
     11940     11990     11993     11994     11940     11990     11993     11995
     11940     11990     11993     11996     11941     11940     11990     11991
     11941     11940     11990     11992     11941     11940     11990     11993
     11942     11940     11990     11991     11942     11940     11990     11992
     11942     11940     11990     11993     11943     11946     11949     11950
     11943     11946     11949     11951     11943     11946     11949     11952
     11944     11943     11946     11947     11944     11943     11946     11948
     11944     11943     11946     11949     11945     11943     11946     11947
     11945     11943     11946     11948     11945     11943     11946     11949
     11946     11949     11952     11953     11946     11949     11952     11954
     11946     11949     11952     11955     11947     11946     11949     11950
     11947     11946     11949     11951     11947     11946     11949     11952
     11948     11946     11949     11950     11948     11946     11949     11951
     11948     11946     11949     11952     11949     11952     11955     11956
     11949     11952     11955     11957     11949     11952     11955     11958
     11950     11949     11952     11953     11950     11949     11952     11954
     11950     11949     11952     11955     11951     11949     11952     11953
     11951     11949     11952     11954     11951     11949     11952     11955
     11952     11955     11958     11959     11952     11955     11958     11960
     11952     11955     11958     11961     11953     11952     11955     11956
     11953     11952     11955     11957     11953     11952     11955     11958
     11954     11952     11955     11956     11954     11952     11955     11957
     11954     11952     11955     11958     11955     11958     11961     11962
     11955     11958     11961     11963     11956     11955     11958     11959
     11956     11955     11958     11960     11956     11955     11958     11961
     11957     11955     11958     11959     11957     11955     11958     11960
     11957     11955     11958     11961     11958     11961     11963     11964
     11958     11961     11963     11965     11959     11958     11961     11962
     11959     11958     11961     11963     11960     11958     11961     11962
     11960     11958     11961     11963     11961     11963     11965     11966
     11961     11963     11965     11967     11961     11963     11965     11968
     11962     11961     11963     11964     11962     11961     11963     11965
     11963     11965     11968     11969     11963     11965     11968     11970
     11963     11965     11968     11971     11964     11963     11965     11966
     11964     11963     11965     11967     11964     11963     11965     11968
     11965     11968     11971     11972     11965     11968     11971     11973
     11965     11968     11971     11974     11966     11965     11968     11969
     11966     11965     11968     11970     11966     11965     11968     11971
     11967     11965     11968     11969     11967     11965     11968     11970
     11967     11965     11968     11971     11968     11971     11974     11975
     11968     11971     11974     11976     11968     11971     11974     11977
     11969     11968     11971     11972     11969     11968     11971     11973
     11969     11968     11971     11974     11970     11968     11971     11972
     11970     11968     11971     11973     11970     11968     11971     11974
     11971     11974     11977     11978     11971     11974     11977     11979
     11971     11974     11977     11980     11972     11971     11974     11975
     11972     11971     11974     11976     11972     11971     11974     11977
     11973     11971     11974     11975     11973     11971     11974     11976
     11973     11971     11974     11977     11974     11977     11980     11981
     11974     11977     11980     11982     11974     11977     11980     11983
     11975     11974     11977     11978     11975     11974     11977     11979
     11975     11974     11977     11980     11976     11974     11977     11978
     11976     11974     11977     11979     11976     11974     11977     11980
     11977     11980     11983     11984     11977     11980     11983     11985
     11977     11980     11983     11986     11978     11977     11980     11981
     11978     11977     11980     11982     11978     11977     11980     11983
     11979     11977     11980     11981     11979     11977     11980     11982
     11979     11977     11980     11983     11980     11983     11986     11987
     11980     11983     11986     11988     11980     11983     11986     11989
     11981     11980     11983     11984     11981     11980     11983     11985
     11981     11980     11983     11986     11982     11980     11983     11984
     11982     11980     11983     11985     11982     11980     11983     11986
     11984     11983     11986     11987     11984     11983     11986     11988
     11984     11983     11986     11989     11985     11983     11986     11987
     11985     11983     11986     11988     11985     11983     11986     11989
     11990     11993     11996     11997     11990     11993     11996     11998
     11990     11993     11996     11999     11991     11990     11993     11994
     11991     11990     11993     11995     11991     11990     11993     11996
     11992     11990     11993     11994     11992     11990     11993     11995
     11992     11990     11993     11996     11993     11996     11999     12000
     11993     11996     11999     12001     11993     11996     11999     12002
     11994     11993     11996     11997     11994     11993     11996     11998
     11994     11993     11996     11999     11995     11993     11996     11997
     11995     11993     11996     11998     11995     11993     11996     11999
     11996     11999     12002     12003     11996     11999     12002     12004
     11996     11999     12002     12005     11997     11996     11999     12000
     11997     11996     11999     12001     11997     11996     11999     12002
     11998     11996     11999     12000     11998     11996     11999     12001
     11998     11996     11999     12002     11999     12002     12005     12006
     11999     12002     12005     12007     11999     12002     12005     12008
     12000     11999     12002     12003     12000     11999     12002     12004
     12000     11999     12002     12005     12001     11999     12002     12003
     12001     11999     12002     12004     12001     11999     12002     12005
     12002     12005     12008     12009     12002     12005     12008     12010
     12002     12005     12008     12011     12003     12002     12005     12006
     12003     12002     12005     12007     12003     12002     12005     12008
     12004     12002     12005     12006     12004     12002     12005     12007
     12004     12002     12005     12008     12005     12008     12011     12012
     12005     12008     12011     12013     12005     12008     12011     12014
     12006     12005     12008     12009     12006     12005     12008     12010
     12006     12005     12008     12011     12007     12005     12008     12009
     12007     12005     12008     12010     12007     12005     12008     12011
     12008     12011     12014     12015     12008     12011     12014     12016
     12008     12011     12014     12017     12009     12008     12011     12012
     12009     12008     12011     12013     12009     12008     12011     12014
     12010     12008     12011     12012     12010     12008     12011     12013
     12010     12008     12011     12014     12011     12014     12017     12018
     12011     12014     12017     12019     12011     12014     12017     12020
     12012     12011     12014     12015     12012     12011     12014     12016
     12012     12011     12014     12017     12013     12011     12014     12015
     12013     12011     12014     12016     12013     12011     12014     12017
     12014     12017     12020     12021     12014     12017     12020     12022
     12014     12017     12020     12023     12015     12014     12017     12018
     12015     12014     12017     12019     12015     12014     12017     12020
     12016     12014     12017     12018     12016     12014     12017     12019
     12016     12014     12017     12020     12017     12020     12023     12024
     12017     12020     12023     12025     12017     12020     12023     12026
     12018     12017     12020     12021     12018     12017     12020     12022
     12018     12017     12020     12023     12019     12017     12020     12021
     12019     12017     12020     12022     12019     12017     12020     12023
     12020     12023     12026     12027     12020     12023     12026     12028
     12020     12023     12026     12029     12021     12020     12023     12024
     12021     12020     12023     12025     12021     12020     12023     12026
     12022     12020     12023     12024     12022     12020     12023     12025
     12022     12020     12023     12026     12023     12026     12029     12030
     12023     12026     12029     12031     12023     12026     12029     12032
     12024     12023     12026     12027     12024     12023     12026     12028
     12024     12023     12026     12029     12025     12023     12026     12027
     12025     12023     12026     12028     12025     12023     12026     12029
     12027     12026     12029     12030     12027     12026     12029     12031
     12027     12026     12029     12032     12028     12026     12029     12030
     12028     12026     12029     12031     12028     12026     12029     12032
     12033     12034     12049     12050     12033     12034     12049     12051
     12033     12034     12049     12055     12034     12033     12037     12038
     12034     12033     12037     12039     12034     12033     12037     12040
     12034     12033     12041     12042     12034     12033     12041     12043
     12034     12033     12041     12044     12034     12033     12045     12046
     12034     12033     12045     12047     12034     12033     12045     12048
     12034     12049     12055     12052     12035     12034     12033     12037
     12035     12034     12033     12041     12035     12034     12033     12045
     12035     12034     12049     12050     12035     12034     12049     12051
     12035     12034     12049     12055     12036     12034     12033     12037
     12036     12034     12033     12041     12036     12034     12033     12045
     12036     12034     12049     12050     12036     12034     12049     12051
     12036     12034     12049     12055     12037     12033     12034     12049
     12037     12033     12041     12042     12037     12033     12041     12043
     12037     12033     12041     12044     12037     12033     12045     12046
     12037     12033     12045     12047     12037     12033     12045     12048
     12038     12037     12033     12041     12038     12037     12033     12045
     12039     12037     12033     12041     12039     12037     12033     12045
     12040     12037     12033     12041     12040     12037     12033     12045
     12041     12033     12034     12049     12041     12033     12045     12046
     12041     12033     12045     12047     12041     12033     12045     12048
     12042     12041     12033     12045     12043     12041     12033     12045
     12044     12041     12033     12045     12045     12033     12034     12049
     12049     12055     12052     12053     12049     12055     12052     12054
     12049     12055     12052     12056     12050     12049     12055     12052
     12051     12049     12055     12052     12052     12056     12057     12058
     12052     12056     12057     12059     12052     12056     12057     12060
     12053     12052     12056     12057     12054     12052     12056     12057
     12055     12052     12056     12057     12056     12057     12060     12061
     12056     12057     12060     12062     12056     12057     12060     12068
     12057     12060     12062     12063     12057     12060     12068     12069
     12057     12060     12068     12070     12057     12060     12068     12071
     12058     12057     12060     12061     12058     12057     12060     12062
     12058     12057     12060     12068     12059     12057     12060     12061
     12059     12057     12060     12062     12059     12057     12060     12068
     12060     12062     12063     12064     12060     12062     12063     12065
     12060     12068     12071     12072     12061     12060     12062     12063
     12061     12060     12068     12069     12061     12060     12068     12070
     12061     12060     12068     12071     12062     12060     12068     12069
     12062     12060     12068     12070     12062     12060     12068     12071
     12062     12063     12065     12066     12062     12063     12065     12067
     12062     12063     12065     12077     12063     12062     12060     12068
     12063     12065     12077     12078     12063     12065     12077     12079
     12063     12065     12077     12080     12064     12063     12065     12066
     12064     12063     12065     12067     12064     12063     12065     12077
     12065     12077     12080     12081     12065     12077     12080     12082
     12065     12077     12080     12083     12066     12065     12077     12078
     12066     12065     12077     12079     12066     12065     12077     12080
     12067     12065     12077     12078     12067     12065     12077     12079
     12067     12065     12077     12080     12068     12071     12072     12073
     12068     12071     12072     12074     12069     12068     12071     12072
     12070     12068     12071     12072     12071     12072     12074     12075
     12071     12072     12074     12076     12071     12072     12074     12124
     12072     12074     12124     12125     12072     12074     12124     12126
     12072     12074     12124     12127     12073     12072     12074     12075
     12073     12072     12074     12076     12073     12072     12074     12124
     12074     12124     12127     12128     12074     12124     12127     12129
     12074     12124     12127     12130     12075     12074     12124     12125
     12075     12074     12124     12126     12075     12074     12124     12127
     12076     12074     12124     12125     12076     12074     12124     12126
     12076     12074     12124     12127     12077     12080     12083     12084
     12077     12080     12083     12085     12077     12080     12083     12086
     12078     12077     12080     12081     12078     12077     12080     12082
     12078     12077     12080     12083     12079     12077     12080     12081
     12079     12077     12080     12082     12079     12077     12080     12083
     12080     12083     12086     12087     12080     12083     12086     12088
     12080     12083     12086     12089     12081     12080     12083     12084
     12081     12080     12083     12085     12081     12080     12083     12086
     12082     12080     12083     12084     12082     12080     12083     12085
     12082     12080     12083     12086     12083     12086     12089     12090
     12083     12086     12089     12091     12083     12086     12089     12092
     12084     12083     12086     12087     12084     12083     12086     12088
     12084     12083     12086     12089     12085     12083     12086     12087
     12085     12083     12086     12088     12085     12083     12086     12089
     12086     12089     12092     12093     12086     12089     12092     12094
     12086     12089     12092     12095     12087     12086     12089     12090
     12087     12086     12089     12091     12087     12086     12089     12092
     12088     12086     12089     12090     12088     12086     12089     12091
     12088     12086     12089     12092     12089     12092     12095     12096
     12089     12092     12095     12097     12090     12089     12092     12093
     12090     12089     12092     12094     12090     12089     12092     12095
     12091     12089     12092     12093     12091     12089     12092     12094
     12091     12089     12092     12095     12092     12095     12097     12098
     12092     12095     12097     12099     12093     12092     12095     12096
     12093     12092     12095     12097     12094     12092     12095     12096
     12094     12092     12095     12097     12095     12097     12099     12100
     12095     12097     12099     12101     12095     12097     12099     12102
     12096     12095     12097     12098     12096     12095     12097     12099
     12097     12099     12102     12103     12097     12099     12102     12104
     12097     12099     12102     12105     12098     12097     12099     12100
     12098     12097     12099     12101     12098     12097     12099     12102
     12099     12102     12105     12106     12099     12102     12105     12107
     12099     12102     12105     12108     12100     12099     12102     12103
     12100     12099     12102     12104     12100     12099     12102     12105
     12101     12099     12102     12103     12101     12099     12102     12104
     12101     12099     12102     12105     12102     12105     12108     12109
     12102     12105     12108     12110     12102     12105     12108     12111
     12103     12102     12105     12106     12103     12102     12105     12107
     12103     12102     12105     12108     12104     12102     12105     12106
     12104     12102     12105     12107     12104     12102     12105     12108
     12105     12108     12111     12112     12105     12108     12111     12113
     12105     12108     12111     12114     12106     12105     12108     12109
     12106     12105     12108     12110     12106     12105     12108     12111
     12107     12105     12108     12109     12107     12105     12108     12110
     12107     12105     12108     12111     12108     12111     12114     12115
     12108     12111     12114     12116     12108     12111     12114     12117
     12109     12108     12111     12112     12109     12108     12111     12113
     12109     12108     12111     12114     12110     12108     12111     12112
     12110     12108     12111     12113     12110     12108     12111     12114
     12111     12114     12117     12118     12111     12114     12117     12119
     12111     12114     12117     12120     12112     12111     12114     12115
     12112     12111     12114     12116     12112     12111     12114     12117
     12113     12111     12114     12115     12113     12111     12114     12116
     12113     12111     12114     12117     12114     12117     12120     12121
     12114     12117     12120     12122     12114     12117     12120     12123
     12115     12114     12117     12118     12115     12114     12117     12119
     12115     12114     12117     12120     12116     12114     12117     12118
     12116     12114     12117     12119     12116     12114     12117     12120
     12118     12117     12120     12121     12118     12117     12120     12122
     12118     12117     12120     12123     12119     12117     12120     12121
     12119     12117     12120     12122     12119     12117     12120     12123
     12124     12127     12130     12131     12124     12127     12130     12132
     12124     12127     12130     12133     12125     12124     12127     12128
     12125     12124     12127     12129     12125     12124     12127     12130
     12126     12124     12127     12128     12126     12124     12127     12129
     12126     12124     12127     12130     12127     12130     12133     12134
     12127     12130     12133     12135     12127     12130     12133     12136
     12128     12127     12130     12131     12128     12127     12130     12132
     12128     12127     12130     12133     12129     12127     12130     12131
     12129     12127     12130     12132     12129     12127     12130     12133
     12130     12133     12136     12137     12130     12133     12136     12138
     12130     12133     12136     12139     12131     12130     12133     12134
     12131     12130     12133     12135     12131     12130     12133     12136
     12132     12130     12133     12134     12132     12130     12133     12135
     12132     12130     12133     12136     12133     12136     12139     12140
     12133     12136     12139     12141     12133     12136     12139     12142
     12134     12133     12136     12137     12134     12133     12136     12138
     12134     12133     12136     12139     12135     12133     12136     12137
     12135     12133     12136     12138     12135     12133     12136     12139
     12136     12139     12142     12143     12136     12139     12142     12144
     12136     12139     12142     12145     12137     12136     12139     12140
     12137     12136     12139     12141     12137     12136     12139     12142
     12138     12136     12139     12140     12138     12136     12139     12141
     12138     12136     12139     12142     12139     12142     12145     12146
     12139     12142     12145     12147     12139     12142     12145     12148
     12140     12139     12142     12143     12140     12139     12142     12144
     12140     12139     12142     12145     12141     12139     12142     12143
     12141     12139     12142     12144     12141     12139     12142     12145
     12142     12145     12148     12149     12142     12145     12148     12150
     12142     12145     12148     12151     12143     12142     12145     12146
     12143     12142     12145     12147     12143     12142     12145     12148
     12144     12142     12145     12146     12144     12142     12145     12147
     12144     12142     12145     12148     12145     12148     12151     12152
     12145     12148     12151     12153     12145     12148     12151     12154
     12146     12145     12148     12149     12146     12145     12148     12150
     12146     12145     12148     12151     12147     12145     12148     12149
     12147     12145     12148     12150     12147     12145     12148     12151
     12148     12151     12154     12155     12148     12151     12154     12156
     12148     12151     12154     12157     12149     12148     12151     12152
     12149     12148     12151     12153     12149     12148     12151     12154
     12150     12148     12151     12152     12150     12148     12151     12153
     12150     12148     12151     12154     12151     12154     12157     12158
     12151     12154     12157     12159     12151     12154     12157     12160
     12152     12151     12154     12155     12152     12151     12154     12156
     12152     12151     12154     12157     12153     12151     12154     12155
     12153     12151     12154     12156     12153     12151     12154     12157
     12154     12157     12160     12161     12154     12157     12160     12162
     12154     12157     12160     12163     12155     12154     12157     12158
     12155     12154     12157     12159     12155     12154     12157     12160
     12156     12154     12157     12158     12156     12154     12157     12159
     12156     12154     12157     12160     12157     12160     12163     12164
     12157     12160     12163     12165     12157     12160     12163     12166
     12158     12157     12160     12161     12158     12157     12160     12162
     12158     12157     12160     12163     12159     12157     12160     12161
     12159     12157     12160     12162     12159     12157     12160     12163
     12161     12160     12163     12164     12161     12160     12163     12165
     12161     12160     12163     12166     12162     12160     12163     12164
     12162     12160     12163     12165     12162     12160     12163     12166
     12167     12168     12183     12184     12167     12168     12183     12185
     12167     12168     12183     12189     12168     12167     12171     12172
     12168     12167     12171     12173     12168     12167     12171     12174
     12168     12167     12175     12176     12168     12167     12175     12177
     12168     12167     12175     12178     12168     12167     12179     12180
     12168     12167     12179     12181     12168     12167     12179     12182
     12168     12183     12189     12186     12169     12168     12167     12171
     12169     12168     12167     12175     12169     12168     12167     12179
     12169     12168     12183     12184     12169     12168     12183     12185
     12169     12168     12183     12189     12170     12168     12167     12171
     12170     12168     12167     12175     12170     12168     12167     12179
     12170     12168     12183     12184     12170     12168     12183     12185
     12170     12168     12183     12189     12171     12167     12168     12183
     12171     12167     12175     12176     12171     12167     12175     12177
     12171     12167     12175     12178     12171     12167     12179     12180
     12171     12167     12179     12181     12171     12167     12179     12182
     12172     12171     12167     12175     12172     12171     12167     12179
     12173     12171     12167     12175     12173     12171     12167     12179
     12174     12171     12167     12175     12174     12171     12167     12179
     12175     12167     12168     12183     12175     12167     12179     12180
     12175     12167     12179     12181     12175     12167     12179     12182
     12176     12175     12167     12179     12177     12175     12167     12179
     12178     12175     12167     12179     12179     12167     12168     12183
     12183     12189     12186     12187     12183     12189     12186     12188
     12183     12189     12186     12190     12184     12183     12189     12186
     12185     12183     12189     12186     12186     12190     12191     12192
     12186     12190     12191     12193     12186     12190     12191     12194
     12187     12186     12190     12191     12188     12186     12190     12191
     12189     12186     12190     12191     12190     12191     12194     12195
     12190     12191     12194     12196     12190     12191     12194     12202
     12191     12194     12196     12197     12191     12194     12202     12203
     12191     12194     12202     12204     12191     12194     12202     12205
     12192     12191     12194     12195     12192     12191     12194     12196
     12192     12191     12194     12202     12193     12191     12194     12195
     12193     12191     12194     12196     12193     12191     12194     12202
     12194     12196     12197     12198     12194     12196     12197     12199
     12194     12202     12205     12206     12195     12194     12196     12197
     12195     12194     12202     12203     12195     12194     12202     12204
     12195     12194     12202     12205     12196     12194     12202     12203
     12196     12194     12202     12204     12196     12194     12202     12205
     12196     12197     12199     12200     12196     12197     12199     12201
     12196     12197     12199     12211     12197     12196     12194     12202
     12197     12199     12211     12212     12197     12199     12211     12213
     12197     12199     12211     12214     12198     12197     12199     12200
     12198     12197     12199     12201     12198     12197     12199     12211
     12199     12211     12214     12215     12199     12211     12214     12216
     12199     12211     12214     12217     12200     12199     12211     12212
     12200     12199     12211     12213     12200     12199     12211     12214
     12201     12199     12211     12212     12201     12199     12211     12213
     12201     12199     12211     12214     12202     12205     12206     12207
     12202     12205     12206     12208     12203     12202     12205     12206
     12204     12202     12205     12206     12205     12206     12208     12209
     12205     12206     12208     12210     12205     12206     12208     12258
     12206     12208     12258     12259     12206     12208     12258     12260
     12206     12208     12258     12261     12207     12206     12208     12209
     12207     12206     12208     12210     12207     12206     12208     12258
     12208     12258     12261     12262     12208     12258     12261     12263
     12208     12258     12261     12264     12209     12208     12258     12259
     12209     12208     12258     12260     12209     12208     12258     12261
     12210     12208     12258     12259     12210     12208     12258     12260
     12210     12208     12258     12261     12211     12214     12217     12218
     12211     12214     12217     12219     12211     12214     12217     12220
     12212     12211     12214     12215     12212     12211     12214     12216
     12212     12211     12214     12217     12213     12211     12214     12215
     12213     12211     12214     12216     12213     12211     12214     12217
     12214     12217     12220     12221     12214     12217     12220     12222
     12214     12217     12220     12223     12215     12214     12217     12218
     12215     12214     12217     12219     12215     12214     12217     12220
     12216     12214     12217     12218     12216     12214     12217     12219
     12216     12214     12217     12220     12217     12220     12223     12224
     12217     12220     12223     12225     12217     12220     12223     12226
     12218     12217     12220     12221     12218     12217     12220     12222
     12218     12217     12220     12223     12219     12217     12220     12221
     12219     12217     12220     12222     12219     12217     12220     12223
     12220     12223     12226     12227     12220     12223     12226     12228
     12220     12223     12226     12229     12221     12220     12223     12224
     12221     12220     12223     12225     12221     12220     12223     12226
     12222     12220     12223     12224     12222     12220     12223     12225
     12222     12220     12223     12226     12223     12226     12229     12230
     12223     12226     12229     12231     12224     12223     12226     12227
     12224     12223     12226     12228     12224     12223     12226     12229
     12225     12223     12226     12227     12225     12223     12226     12228
     12225     12223     12226     12229     12226     12229     12231     12232
     12226     12229     12231     12233     12227     12226     12229     12230
     12227     12226     12229     12231     12228     12226     12229     12230
     12228     12226     12229     12231     12229     12231     12233     12234
     12229     12231     12233     12235     12229     12231     12233     12236
     12230     12229     12231     12232     12230     12229     12231     12233
     12231     12233     12236     12237     12231     12233     12236     12238
     12231     12233     12236     12239     12232     12231     12233     12234
     12232     12231     12233     12235     12232     12231     12233     12236
     12233     12236     12239     12240     12233     12236     12239     12241
     12233     12236     12239     12242     12234     12233     12236     12237
     12234     12233     12236     12238     12234     12233     12236     12239
     12235     12233     12236     12237     12235     12233     12236     12238
     12235     12233     12236     12239     12236     12239     12242     12243
     12236     12239     12242     12244     12236     12239     12242     12245
     12237     12236     12239     12240     12237     12236     12239     12241
     12237     12236     12239     12242     12238     12236     12239     12240
     12238     12236     12239     12241     12238     12236     12239     12242
     12239     12242     12245     12246     12239     12242     12245     12247
     12239     12242     12245     12248     12240     12239     12242     12243
     12240     12239     12242     12244     12240     12239     12242     12245
     12241     12239     12242     12243     12241     12239     12242     12244
     12241     12239     12242     12245     12242     12245     12248     12249
     12242     12245     12248     12250     12242     12245     12248     12251
     12243     12242     12245     12246     12243     12242     12245     12247
     12243     12242     12245     12248     12244     12242     12245     12246
     12244     12242     12245     12247     12244     12242     12245     12248
     12245     12248     12251     12252     12245     12248     12251     12253
     12245     12248     12251     12254     12246     12245     12248     12249
     12246     12245     12248     12250     12246     12245     12248     12251
     12247     12245     12248     12249     12247     12245     12248     12250
     12247     12245     12248     12251     12248     12251     12254     12255
     12248     12251     12254     12256     12248     12251     12254     12257
     12249     12248     12251     12252     12249     12248     12251     12253
     12249     12248     12251     12254     12250     12248     12251     12252
     12250     12248     12251     12253     12250     12248     12251     12254
     12252     12251     12254     12255     12252     12251     12254     12256
     12252     12251     12254     12257     12253     12251     12254     12255
     12253     12251     12254     12256     12253     12251     12254     12257
     12258     12261     12264     12265     12258     12261     12264     12266
     12258     12261     12264     12267     12259     12258     12261     12262
     12259     12258     12261     12263     12259     12258     12261     12264
     12260     12258     12261     12262     12260     12258     12261     12263
     12260     12258     12261     12264     12261     12264     12267     12268
     12261     12264     12267     12269     12261     12264     12267     12270
     12262     12261     12264     12265     12262     12261     12264     12266
     12262     12261     12264     12267     12263     12261     12264     12265
     12263     12261     12264     12266     12263     12261     12264     12267
     12264     12267     12270     12271     12264     12267     12270     12272
     12264     12267     12270     12273     12265     12264     12267     12268
     12265     12264     12267     12269     12265     12264     12267     12270
     12266     12264     12267     12268     12266     12264     12267     12269
     12266     12264     12267     12270     12267     12270     12273     12274
     12267     12270     12273     12275     12267     12270     12273     12276
     12268     12267     12270     12271     12268     12267     12270     12272
     12268     12267     12270     12273     12269     12267     12270     12271
     12269     12267     12270     12272     12269     12267     12270     12273
     12270     12273     12276     12277     12270     12273     12276     12278
     12270     12273     12276     12279     12271     12270     12273     12274
     12271     12270     12273     12275     12271     12270     12273     12276
     12272     12270     12273     12274     12272     12270     12273     12275
     12272     12270     12273     12276     12273     12276     12279     12280
     12273     12276     12279     12281     12273     12276     12279     12282
     12274     12273     12276     12277     12274     12273     12276     12278
     12274     12273     12276     12279     12275     12273     12276     12277
     12275     12273     12276     12278     12275     12273     12276     12279
     12276     12279     12282     12283     12276     12279     12282     12284
     12276     12279     12282     12285     12277     12276     12279     12280
     12277     12276     12279     12281     12277     12276     12279     12282
     12278     12276     12279     12280     12278     12276     12279     12281
     12278     12276     12279     12282     12279     12282     12285     12286
     12279     12282     12285     12287     12279     12282     12285     12288
     12280     12279     12282     12283     12280     12279     12282     12284
     12280     12279     12282     12285     12281     12279     12282     12283
     12281     12279     12282     12284     12281     12279     12282     12285
     12282     12285     12288     12289     12282     12285     12288     12290
     12282     12285     12288     12291     12283     12282     12285     12286
     12283     12282     12285     12287     12283     12282     12285     12288
     12284     12282     12285     12286     12284     12282     12285     12287
     12284     12282     12285     12288     12285     12288     12291     12292
     12285     12288     12291     12293     12285     12288     12291     12294
     12286     12285     12288     12289     12286     12285     12288     12290
     12286     12285     12288     12291     12287     12285     12288     12289
     12287     12285     12288     12290     12287     12285     12288     12291
     12288     12291     12294     12295     12288     12291     12294     12296
     12288     12291     12294     12297     12289     12288     12291     12292
     12289     12288     12291     12293     12289     12288     12291     12294
     12290     12288     12291     12292     12290     12288     12291     12293
     12290     12288     12291     12294     12291     12294     12297     12298
     12291     12294     12297     12299     12291     12294     12297     12300
     12292     12291     12294     12295     12292     12291     12294     12296
     12292     12291     12294     12297     12293     12291     12294     12295
     12293     12291     12294     12296     12293     12291     12294     12297
     12295     12294     12297     12298     12295     12294     12297     12299
     12295     12294     12297     12300     12296     12294     12297     12298
     12296     12294     12297     12299     12296     12294     12297     12300
     12301     12302     12317     12318     12301     12302     12317     12319
     12301     12302     12317     12323     12302     12301     12305     12306
     12302     12301     12305     12307     12302     12301     12305     12308
     12302     12301     12309     12310     12302     12301     12309     12311
     12302     12301     12309     12312     12302     12301     12313     12314
     12302     12301     12313     12315     12302     12301     12313     12316
     12302     12317     12323     12320     12303     12302     12301     12305
     12303     12302     12301     12309     12303     12302     12301     12313
     12303     12302     12317     12318     12303     12302     12317     12319
     12303     12302     12317     12323     12304     12302     12301     12305
     12304     12302     12301     12309     12304     12302     12301     12313
     12304     12302     12317     12318     12304     12302     12317     12319
     12304     12302     12317     12323     12305     12301     12302     12317
     12305     12301     12309     12310     12305     12301     12309     12311
     12305     12301     12309     12312     12305     12301     12313     12314
     12305     12301     12313     12315     12305     12301     12313     12316
     12306     12305     12301     12309     12306     12305     12301     12313
     12307     12305     12301     12309     12307     12305     12301     12313
     12308     12305     12301     12309     12308     12305     12301     12313
     12309     12301     12302     12317     12309     12301     12313     12314
     12309     12301     12313     12315     12309     12301     12313     12316
     12310     12309     12301     12313     12311     12309     12301     12313
     12312     12309     12301     12313     12313     12301     12302     12317
     12317     12323     12320     12321     12317     12323     12320     12322
     12317     12323     12320     12324     12318     12317     12323     12320
     12319     12317     12323     12320     12320     12324     12325     12326
     12320     12324     12325     12327     12320     12324     12325     12328
     12321     12320     12324     12325     12322     12320     12324     12325
     12323     12320     12324     12325     12324     12325     12328     12329
     12324     12325     12328     12330     12324     12325     12328     12336
     12325     12328     12330     12331     12325     12328     12336     12337
     12325     12328     12336     12338     12325     12328     12336     12339
     12326     12325     12328     12329     12326     12325     12328     12330
     12326     12325     12328     12336     12327     12325     12328     12329
     12327     12325     12328     12330     12327     12325     12328     12336
     12328     12330     12331     12332     12328     12330     12331     12333
     12328     12336     12339     12340     12329     12328     12330     12331
     12329     12328     12336     12337     12329     12328     12336     12338
     12329     12328     12336     12339     12330     12328     12336     12337
     12330     12328     12336     12338     12330     12328     12336     12339
     12330     12331     12333     12334     12330     12331     12333     12335
     12330     12331     12333     12345     12331     12330     12328     12336
     12331     12333     12345     12346     12331     12333     12345     12347
     12331     12333     12345     12348     12332     12331     12333     12334
     12332     12331     12333     12335     12332     12331     12333     12345
     12333     12345     12348     12349     12333     12345     12348     12350
     12333     12345     12348     12351     12334     12333     12345     12346
     12334     12333     12345     12347     12334     12333     12345     12348
     12335     12333     12345     12346     12335     12333     12345     12347
     12335     12333     12345     12348     12336     12339     12340     12341
     12336     12339     12340     12342     12337     12336     12339     12340
     12338     12336     12339     12340     12339     12340     12342     12343
     12339     12340     12342     12344     12339     12340     12342     12392
     12340     12342     12392     12393     12340     12342     12392     12394
     12340     12342     12392     12395     12341     12340     12342     12343
     12341     12340     12342     12344     12341     12340     12342     12392
     12342     12392     12395     12396     12342     12392     12395     12397
     12342     12392     12395     12398     12343     12342     12392     12393
     12343     12342     12392     12394     12343     12342     12392     12395
     12344     12342     12392     12393     12344     12342     12392     12394
     12344     12342     12392     12395     12345     12348     12351     12352
     12345     12348     12351     12353     12345     12348     12351     12354
     12346     12345     12348     12349     12346     12345     12348     12350
     12346     12345     12348     12351     12347     12345     12348     12349
     12347     12345     12348     12350     12347     12345     12348     12351
     12348     12351     12354     12355     12348     12351     12354     12356
     12348     12351     12354     12357     12349     12348     12351     12352
     12349     12348     12351     12353     12349     12348     12351     12354
     12350     12348     12351     12352     12350     12348     12351     12353
     12350     12348     12351     12354     12351     12354     12357     12358
     12351     12354     12357     12359     12351     12354     12357     12360
     12352     12351     12354     12355     12352     12351     12354     12356
     12352     12351     12354     12357     12353     12351     12354     12355
     12353     12351     12354     12356     12353     12351     12354     12357
     12354     12357     12360     12361     12354     12357     12360     12362
     12354     12357     12360     12363     12355     12354     12357     12358
     12355     12354     12357     12359     12355     12354     12357     12360
     12356     12354     12357     12358     12356     12354     12357     12359
     12356     12354     12357     12360     12357     12360     12363     12364
     12357     12360     12363     12365     12358     12357     12360     12361
     12358     12357     12360     12362     12358     12357     12360     12363
     12359     12357     12360     12361     12359     12357     12360     12362
     12359     12357     12360     12363     12360     12363     12365     12366
     12360     12363     12365     12367     12361     12360     12363     12364
     12361     12360     12363     12365     12362     12360     12363     12364
     12362     12360     12363     12365     12363     12365     12367     12368
     12363     12365     12367     12369     12363     12365     12367     12370
     12364     12363     12365     12366     12364     12363     12365     12367
     12365     12367     12370     12371     12365     12367     12370     12372
     12365     12367     12370     12373     12366     12365     12367     12368
     12366     12365     12367     12369     12366     12365     12367     12370
     12367     12370     12373     12374     12367     12370     12373     12375
     12367     12370     12373     12376     12368     12367     12370     12371
     12368     12367     12370     12372     12368     12367     12370     12373
     12369     12367     12370     12371     12369     12367     12370     12372
     12369     12367     12370     12373     12370     12373     12376     12377
     12370     12373     12376     12378     12370     12373     12376     12379
     12371     12370     12373     12374     12371     12370     12373     12375
     12371     12370     12373     12376     12372     12370     12373     12374
     12372     12370     12373     12375     12372     12370     12373     12376
     12373     12376     12379     12380     12373     12376     12379     12381
     12373     12376     12379     12382     12374     12373     12376     12377
     12374     12373     12376     12378     12374     12373     12376     12379
     12375     12373     12376     12377     12375     12373     12376     12378
     12375     12373     12376     12379     12376     12379     12382     12383
     12376     12379     12382     12384     12376     12379     12382     12385
     12377     12376     12379     12380     12377     12376     12379     12381
     12377     12376     12379     12382     12378     12376     12379     12380
     12378     12376     12379     12381     12378     12376     12379     12382
     12379     12382     12385     12386     12379     12382     12385     12387
     12379     12382     12385     12388     12380     12379     12382     12383
     12380     12379     12382     12384     12380     12379     12382     12385
     12381     12379     12382     12383     12381     12379     12382     12384
     12381     12379     12382     12385     12382     12385     12388     12389
     12382     12385     12388     12390     12382     12385     12388     12391
     12383     12382     12385     12386     12383     12382     12385     12387
     12383     12382     12385     12388     12384     12382     12385     12386
     12384     12382     12385     12387     12384     12382     12385     12388
     12386     12385     12388     12389     12386     12385     12388     12390
     12386     12385     12388     12391     12387     12385     12388     12389
     12387     12385     12388     12390     12387     12385     12388     12391
     12392     12395     12398     12399     12392     12395     12398     12400
     12392     12395     12398     12401     12393     12392     12395     12396
     12393     12392     12395     12397     12393     12392     12395     12398
     12394     12392     12395     12396     12394     12392     12395     12397
     12394     12392     12395     12398     12395     12398     12401     12402
     12395     12398     12401     12403     12395     12398     12401     12404
     12396     12395     12398     12399     12396     12395     12398     12400
     12396     12395     12398     12401     12397     12395     12398     12399
     12397     12395     12398     12400     12397     12395     12398     12401
     12398     12401     12404     12405     12398     12401     12404     12406
     12398     12401     12404     12407     12399     12398     12401     12402
     12399     12398     12401     12403     12399     12398     12401     12404
     12400     12398     12401     12402     12400     12398     12401     12403
     12400     12398     12401     12404     12401     12404     12407     12408
     12401     12404     12407     12409     12401     12404     12407     12410
     12402     12401     12404     12405     12402     12401     12404     12406
     12402     12401     12404     12407     12403     12401     12404     12405
     12403     12401     12404     12406     12403     12401     12404     12407
     12404     12407     12410     12411     12404     12407     12410     12412
     12404     12407     12410     12413     12405     12404     12407     12408
     12405     12404     12407     12409     12405     12404     12407     12410
     12406     12404     12407     12408     12406     12404     12407     12409
     12406     12404     12407     12410     12407     12410     12413     12414
     12407     12410     12413     12415     12407     12410     12413     12416
     12408     12407     12410     12411     12408     12407     12410     12412
     12408     12407     12410     12413     12409     12407     12410     12411
     12409     12407     12410     12412     12409     12407     12410     12413
     12410     12413     12416     12417     12410     12413     12416     12418
     12410     12413     12416     12419     12411     12410     12413     12414
     12411     12410     12413     12415     12411     12410     12413     12416
     12412     12410     12413     12414     12412     12410     12413     12415
     12412     12410     12413     12416     12413     12416     12419     12420
     12413     12416     12419     12421     12413     12416     12419     12422
     12414     12413     12416     12417     12414     12413     12416     12418
     12414     12413     12416     12419     12415     12413     12416     12417
     12415     12413     12416     12418     12415     12413     12416     12419
     12416     12419     12422     12423     12416     12419     12422     12424
     12416     12419     12422     12425     12417     12416     12419     12420
     12417     12416     12419     12421     12417     12416     12419     12422
     12418     12416     12419     12420     12418     12416     12419     12421
     12418     12416     12419     12422     12419     12422     12425     12426
     12419     12422     12425     12427     12419     12422     12425     12428
     12420     12419     12422     12423     12420     12419     12422     12424
     12420     12419     12422     12425     12421     12419     12422     12423
     12421     12419     12422     12424     12421     12419     12422     12425
     12422     12425     12428     12429     12422     12425     12428     12430
     12422     12425     12428     12431     12423     12422     12425     12426
     12423     12422     12425     12427     12423     12422     12425     12428
     12424     12422     12425     12426     12424     12422     12425     12427
     12424     12422     12425     12428     12425     12428     12431     12432
     12425     12428     12431     12433     12425     12428     12431     12434
     12426     12425     12428     12429     12426     12425     12428     12430
     12426     12425     12428     12431     12427     12425     12428     12429
     12427     12425     12428     12430     12427     12425     12428     12431
     12429     12428     12431     12432     12429     12428     12431     12433
     12429     12428     12431     12434     12430     12428     12431     12432
     12430     12428     12431     12433     12430     12428     12431     12434
     12435     12436     12451     12452     12435     12436     12451     12453
     12435     12436     12451     12457     12436     12435     12439     12440
     12436     12435     12439     12441     12436     12435     12439     12442
     12436     12435     12443     12444     12436     12435     12443     12445
     12436     12435     12443     12446     12436     12435     12447     12448
     12436     12435     12447     12449     12436     12435     12447     12450
     12436     12451     12457     12454     12437     12436     12435     12439
     12437     12436     12435     12443     12437     12436     12435     12447
     12437     12436     12451     12452     12437     12436     12451     12453
     12437     12436     12451     12457     12438     12436     12435     12439
     12438     12436     12435     12443     12438     12436     12435     12447
     12438     12436     12451     12452     12438     12436     12451     12453
     12438     12436     12451     12457     12439     12435     12436     12451
     12439     12435     12443     12444     12439     12435     12443     12445
     12439     12435     12443     12446     12439     12435     12447     12448
     12439     12435     12447     12449     12439     12435     12447     12450
     12440     12439     12435     12443     12440     12439     12435     12447
     12441     12439     12435     12443     12441     12439     12435     12447
     12442     12439     12435     12443     12442     12439     12435     12447
     12443     12435     12436     12451     12443     12435     12447     12448
     12443     12435     12447     12449     12443     12435     12447     12450
     12444     12443     12435     12447     12445     12443     12435     12447
     12446     12443     12435     12447     12447     12435     12436     12451
     12451     12457     12454     12455     12451     12457     12454     12456
     12451     12457     12454     12458     12452     12451     12457     12454
     12453     12451     12457     12454     12454     12458     12459     12460
     12454     12458     12459     12461     12454     12458     12459     12462
     12455     12454     12458     12459     12456     12454     12458     12459
     12457     12454     12458     12459     12458     12459     12462     12463
     12458     12459     12462     12464     12458     12459     12462     12470
     12459     12462     12464     12465     12459     12462     12470     12471
     12459     12462     12470     12472     12459     12462     12470     12473
     12460     12459     12462     12463     12460     12459     12462     12464
     12460     12459     12462     12470     12461     12459     12462     12463
     12461     12459     12462     12464     12461     12459     12462     12470
     12462     12464     12465     12466     12462     12464     12465     12467
     12462     12470     12473     12474     12463     12462     12464     12465
     12463     12462     12470     12471     12463     12462     12470     12472
     12463     12462     12470     12473     12464     12462     12470     12471
     12464     12462     12470     12472     12464     12462     12470     12473
     12464     12465     12467     12468     12464     12465     12467     12469
     12464     12465     12467     12479     12465     12464     12462     12470
     12465     12467     12479     12480     12465     12467     12479     12481
     12465     12467     12479     12482     12466     12465     12467     12468
     12466     12465     12467     12469     12466     12465     12467     12479
     12467     12479     12482     12483     12467     12479     12482     12484
     12467     12479     12482     12485     12468     12467     12479     12480
     12468     12467     12479     12481     12468     12467     12479     12482
     12469     12467     12479     12480     12469     12467     12479     12481
     12469     12467     12479     12482     12470     12473     12474     12475
     12470     12473     12474     12476     12471     12470     12473     12474
     12472     12470     12473     12474     12473     12474     12476     12477
     12473     12474     12476     12478     12473     12474     12476     12526
     12474     12476     12526     12527     12474     12476     12526     12528
     12474     12476     12526     12529     12475     12474     12476     12477
     12475     12474     12476     12478     12475     12474     12476     12526
     12476     12526     12529     12530     12476     12526     12529     12531
     12476     12526     12529     12532     12477     12476     12526     12527
     12477     12476     12526     12528     12477     12476     12526     12529
     12478     12476     12526     12527     12478     12476     12526     12528
     12478     12476     12526     12529     12479     12482     12485     12486
     12479     12482     12485     12487     12479     12482     12485     12488
     12480     12479     12482     12483     12480     12479     12482     12484
     12480     12479     12482     12485     12481     12479     12482     12483
     12481     12479     12482     12484     12481     12479     12482     12485
     12482     12485     12488     12489     12482     12485     12488     12490
     12482     12485     12488     12491     12483     12482     12485     12486
     12483     12482     12485     12487     12483     12482     12485     12488
     12484     12482     12485     12486     12484     12482     12485     12487
     12484     12482     12485     12488     12485     12488     12491     12492
     12485     12488     12491     12493     12485     12488     12491     12494
     12486     12485     12488     12489     12486     12485     12488     12490
     12486     12485     12488     12491     12487     12485     12488     12489
     12487     12485     12488     12490     12487     12485     12488     12491
     12488     12491     12494     12495     12488     12491     12494     12496
     12488     12491     12494     12497     12489     12488     12491     12492
     12489     12488     12491     12493     12489     12488     12491     12494
     12490     12488     12491     12492     12490     12488     12491     12493
     12490     12488     12491     12494     12491     12494     12497     12498
     12491     12494     12497     12499     12492     12491     12494     12495
     12492     12491     12494     12496     12492     12491     12494     12497
     12493     12491     12494     12495     12493     12491     12494     12496
     12493     12491     12494     12497     12494     12497     12499     12500
     12494     12497     12499     12501     12495     12494     12497     12498
     12495     12494     12497     12499     12496     12494     12497     12498
     12496     12494     12497     12499     12497     12499     12501     12502
     12497     12499     12501     12503     12497     12499     12501     12504
     12498     12497     12499     12500     12498     12497     12499     12501
     12499     12501     12504     12505     12499     12501     12504     12506
     12499     12501     12504     12507     12500     12499     12501     12502
     12500     12499     12501     12503     12500     12499     12501     12504
     12501     12504     12507     12508     12501     12504     12507     12509
     12501     12504     12507     12510     12502     12501     12504     12505
     12502     12501     12504     12506     12502     12501     12504     12507
     12503     12501     12504     12505     12503     12501     12504     12506
     12503     12501     12504     12507     12504     12507     12510     12511
     12504     12507     12510     12512     12504     12507     12510     12513
     12505     12504     12507     12508     12505     12504     12507     12509
     12505     12504     12507     12510     12506     12504     12507     12508
     12506     12504     12507     12509     12506     12504     12507     12510
     12507     12510     12513     12514     12507     12510     12513     12515
     12507     12510     12513     12516     12508     12507     12510     12511
     12508     12507     12510     12512     12508     12507     12510     12513
     12509     12507     12510     12511     12509     12507     12510     12512
     12509     12507     12510     12513     12510     12513     12516     12517
     12510     12513     12516     12518     12510     12513     12516     12519
     12511     12510     12513     12514     12511     12510     12513     12515
     12511     12510     12513     12516     12512     12510     12513     12514
     12512     12510     12513     12515     12512     12510     12513     12516
     12513     12516     12519     12520     12513     12516     12519     12521
     12513     12516     12519     12522     12514     12513     12516     12517
     12514     12513     12516     12518     12514     12513     12516     12519
     12515     12513     12516     12517     12515     12513     12516     12518
     12515     12513     12516     12519     12516     12519     12522     12523
     12516     12519     12522     12524     12516     12519     12522     12525
     12517     12516     12519     12520     12517     12516     12519     12521
     12517     12516     12519     12522     12518     12516     12519     12520
     12518     12516     12519     12521     12518     12516     12519     12522
     12520     12519     12522     12523     12520     12519     12522     12524
     12520     12519     12522     12525     12521     12519     12522     12523
     12521     12519     12522     12524     12521     12519     12522     12525
     12526     12529     12532     12533     12526     12529     12532     12534
     12526     12529     12532     12535     12527     12526     12529     12530
     12527     12526     12529     12531     12527     12526     12529     12532
     12528     12526     12529     12530     12528     12526     12529     12531
     12528     12526     12529     12532     12529     12532     12535     12536
     12529     12532     12535     12537     12529     12532     12535     12538
     12530     12529     12532     12533     12530     12529     12532     12534
     12530     12529     12532     12535     12531     12529     12532     12533
     12531     12529     12532     12534     12531     12529     12532     12535
     12532     12535     12538     12539     12532     12535     12538     12540
     12532     12535     12538     12541     12533     12532     12535     12536
     12533     12532     12535     12537     12533     12532     12535     12538
     12534     12532     12535     12536     12534     12532     12535     12537
     12534     12532     12535     12538     12535     12538     12541     12542
     12535     12538     12541     12543     12535     12538     12541     12544
     12536     12535     12538     12539     12536     12535     12538     12540
     12536     12535     12538     12541     12537     12535     12538     12539
     12537     12535     12538     12540     12537     12535     12538     12541
     12538     12541     12544     12545     12538     12541     12544     12546
     12538     12541     12544     12547     12539     12538     12541     12542
     12539     12538     12541     12543     12539     12538     12541     12544
     12540     12538     12541     12542     12540     12538     12541     12543
     12540     12538     12541     12544     12541     12544     12547     12548
     12541     12544     12547     12549     12541     12544     12547     12550
     12542     12541     12544     12545     12542     12541     12544     12546
     12542     12541     12544     12547     12543     12541     12544     12545
     12543     12541     12544     12546     12543     12541     12544     12547
     12544     12547     12550     12551     12544     12547     12550     12552
     12544     12547     12550     12553     12545     12544     12547     12548
     12545     12544     12547     12549     12545     12544     12547     12550
     12546     12544     12547     12548     12546     12544     12547     12549
     12546     12544     12547     12550     12547     12550     12553     12554
     12547     12550     12553     12555     12547     12550     12553     12556
     12548     12547     12550     12551     12548     12547     12550     12552
     12548     12547     12550     12553     12549     12547     12550     12551
     12549     12547     12550     12552     12549     12547     12550     12553
     12550     12553     12556     12557     12550     12553     12556     12558
     12550     12553     12556     12559     12551     12550     12553     12554
     12551     12550     12553     12555     12551     12550     12553     12556
     12552     12550     12553     12554     12552     12550     12553     12555
     12552     12550     12553     12556     12553     12556     12559     12560
     12553     12556     12559     12561     12553     12556     12559     12562
     12554     12553     12556     12557     12554     12553     12556     12558
     12554     12553     12556     12559     12555     12553     12556     12557
     12555     12553     12556     12558     12555     12553     12556     12559
     12556     12559     12562     12563     12556     12559     12562     12564
     12556     12559     12562     12565     12557     12556     12559     12560
     12557     12556     12559     12561     12557     12556     12559     12562
     12558     12556     12559     12560     12558     12556     12559     12561
     12558     12556     12559     12562     12559     12562     12565     12566
     12559     12562     12565     12567     12559     12562     12565     12568
     12560     12559     12562     12563     12560     12559     12562     12564
     12560     12559     12562     12565     12561     12559     12562     12563
     12561     12559     12562     12564     12561     12559     12562     12565
     12563     12562     12565     12566     12563     12562     12565     12567
     12563     12562     12565     12568     12564     12562     12565     12566
     12564     12562     12565     12567     12564     12562     12565     12568
     12569     12570     12585     12586     12569     12570     12585     12587
     12569     12570     12585     12591     12570     12569     12573     12574
     12570     12569     12573     12575     12570     12569     12573     12576
     12570     12569     12577     12578     12570     12569     12577     12579
     12570     12569     12577     12580     12570     12569     12581     12582
     12570     12569     12581     12583     12570     12569     12581     12584
     12570     12585     12591     12588     12571     12570     12569     12573
     12571     12570     12569     12577     12571     12570     12569     12581
     12571     12570     12585     12586     12571     12570     12585     12587
     12571     12570     12585     12591     12572     12570     12569     12573
     12572     12570     12569     12577     12572     12570     12569     12581
     12572     12570     12585     12586     12572     12570     12585     12587
     12572     12570     12585     12591     12573     12569     12570     12585
     12573     12569     12577     12578     12573     12569     12577     12579
     12573     12569     12577     12580     12573     12569     12581     12582
     12573     12569     12581     12583     12573     12569     12581     12584
     12574     12573     12569     12577     12574     12573     12569     12581
     12575     12573     12569     12577     12575     12573     12569     12581
     12576     12573     12569     12577     12576     12573     12569     12581
     12577     12569     12570     12585     12577     12569     12581     12582
     12577     12569     12581     12583     12577     12569     12581     12584
     12578     12577     12569     12581     12579     12577     12569     12581
     12580     12577     12569     12581     12581     12569     12570     12585
     12585     12591     12588     12589     12585     12591     12588     12590
     12585     12591     12588     12592     12586     12585     12591     12588
     12587     12585     12591     12588     12588     12592     12593     12594
     12588     12592     12593     12595     12588     12592     12593     12596
     12589     12588     12592     12593     12590     12588     12592     12593
     12591     12588     12592     12593     12592     12593     12596     12597
     12592     12593     12596     12598     12592     12593     12596     12604
     12593     12596     12598     12599     12593     12596     12604     12605
     12593     12596     12604     12606     12593     12596     12604     12607
     12594     12593     12596     12597     12594     12593     12596     12598
     12594     12593     12596     12604     12595     12593     12596     12597
     12595     12593     12596     12598     12595     12593     12596     12604
     12596     12598     12599     12600     12596     12598     12599     12601
     12596     12604     12607     12608     12597     12596     12598     12599
     12597     12596     12604     12605     12597     12596     12604     12606
     12597     12596     12604     12607     12598     12596     12604     12605
     12598     12596     12604     12606     12598     12596     12604     12607
     12598     12599     12601     12602     12598     12599     12601     12603
     12598     12599     12601     12613     12599     12598     12596     12604
     12599     12601     12613     12614     12599     12601     12613     12615
     12599     12601     12613     12616     12600     12599     12601     12602
     12600     12599     12601     12603     12600     12599     12601     12613
     12601     12613     12616     12617     12601     12613     12616     12618
     12601     12613     12616     12619     12602     12601     12613     12614
     12602     12601     12613     12615     12602     12601     12613     12616
     12603     12601     12613     12614     12603     12601     12613     12615
     12603     12601     12613     12616     12604     12607     12608     12609
     12604     12607     12608     12610     12605     12604     12607     12608
     12606     12604     12607     12608     12607     12608     12610     12611
     12607     12608     12610     12612     12607     12608     12610     12660
     12608     12610     12660     12661     12608     12610     12660     12662
     12608     12610     12660     12663     12609     12608     12610     12611
     12609     12608     12610     12612     12609     12608     12610     12660
     12610     12660     12663     12664     12610     12660     12663     12665
     12610     12660     12663     12666     12611     12610     12660     12661
     12611     12610     12660     12662     12611     12610     12660     12663
     12612     12610     12660     12661     12612     12610     12660     12662
     12612     12610     12660     12663     12613     12616     12619     12620
     12613     12616     12619     12621     12613     12616     12619     12622
     12614     12613     12616     12617     12614     12613     12616     12618
     12614     12613     12616     12619     12615     12613     12616     12617
     12615     12613     12616     12618     12615     12613     12616     12619
     12616     12619     12622     12623     12616     12619     12622     12624
     12616     12619     12622     12625     12617     12616     12619     12620
     12617     12616     12619     12621     12617     12616     12619     12622
     12618     12616     12619     12620     12618     12616     12619     12621
     12618     12616     12619     12622     12619     12622     12625     12626
     12619     12622     12625     12627     12619     12622     12625     12628
     12620     12619     12622     12623     12620     12619     12622     12624
     12620     12619     12622     12625     12621     12619     12622     12623
     12621     12619     12622     12624     12621     12619     12622     12625
     12622     12625     12628     12629     12622     12625     12628     12630
     12622     12625     12628     12631     12623     12622     12625     12626
     12623     12622     12625     12627     12623     12622     12625     12628
     12624     12622     12625     12626     12624     12622     12625     12627
     12624     12622     12625     12628     12625     12628     12631     12632
     12625     12628     12631     12633     12626     12625     12628     12629
     12626     12625     12628     12630     12626     12625     12628     12631
     12627     12625     12628     12629     12627     12625     12628     12630
     12627     12625     12628     12631     12628     12631     12633     12634
     12628     12631     12633     12635     12629     12628     12631     12632
     12629     12628     12631     12633     12630     12628     12631     12632
     12630     12628     12631     12633     12631     12633     12635     12636
     12631     12633     12635     12637     12631     12633     12635     12638
     12632     12631     12633     12634     12632     12631     12633     12635
     12633     12635     12638     12639     12633     12635     12638     12640
     12633     12635     12638     12641     12634     12633     12635     12636
     12634     12633     12635     12637     12634     12633     12635     12638
     12635     12638     12641     12642     12635     12638     12641     12643
     12635     12638     12641     12644     12636     12635     12638     12639
     12636     12635     12638     12640     12636     12635     12638     12641
     12637     12635     12638     12639     12637     12635     12638     12640
     12637     12635     12638     12641     12638     12641     12644     12645
     12638     12641     12644     12646     12638     12641     12644     12647
     12639     12638     12641     12642     12639     12638     12641     12643
     12639     12638     12641     12644     12640     12638     12641     12642
     12640     12638     12641     12643     12640     12638     12641     12644
     12641     12644     12647     12648     12641     12644     12647     12649
     12641     12644     12647     12650     12642     12641     12644     12645
     12642     12641     12644     12646     12642     12641     12644     12647
     12643     12641     12644     12645     12643     12641     12644     12646
     12643     12641     12644     12647     12644     12647     12650     12651
     12644     12647     12650     12652     12644     12647     12650     12653
     12645     12644     12647     12648     12645     12644     12647     12649
     12645     12644     12647     12650     12646     12644     12647     12648
     12646     12644     12647     12649     12646     12644     12647     12650
     12647     12650     12653     12654     12647     12650     12653     12655
     12647     12650     12653     12656     12648     12647     12650     12651
     12648     12647     12650     12652     12648     12647     12650     12653
     12649     12647     12650     12651     12649     12647     12650     12652
     12649     12647     12650     12653     12650     12653     12656     12657
     12650     12653     12656     12658     12650     12653     12656     12659
     12651     12650     12653     12654     12651     12650     12653     12655
     12651     12650     12653     12656     12652     12650     12653     12654
     12652     12650     12653     12655     12652     12650     12653     12656
     12654     12653     12656     12657     12654     12653     12656     12658
     12654     12653     12656     12659     12655     12653     12656     12657
     12655     12653     12656     12658     12655     12653     12656     12659
     12660     12663     12666     12667     12660     12663     12666     12668
     12660     12663     12666     12669     12661     12660     12663     12664
     12661     12660     12663     12665     12661     12660     12663     12666
     12662     12660     12663     12664     12662     12660     12663     12665
     12662     12660     12663     12666     12663     12666     12669     12670
     12663     12666     12669     12671     12663     12666     12669     12672
     12664     12663     12666     12667     12664     12663     12666     12668
     12664     12663     12666     12669     12665     12663     12666     12667
     12665     12663     12666     12668     12665     12663     12666     12669
     12666     12669     12672     12673     12666     12669     12672     12674
     12666     12669     12672     12675     12667     12666     12669     12670
     12667     12666     12669     12671     12667     12666     12669     12672
     12668     12666     12669     12670     12668     12666     12669     12671
     12668     12666     12669     12672     12669     12672     12675     12676
     12669     12672     12675     12677     12669     12672     12675     12678
     12670     12669     12672     12673     12670     12669     12672     12674
     12670     12669     12672     12675     12671     12669     12672     12673
     12671     12669     12672     12674     12671     12669     12672     12675
     12672     12675     12678     12679     12672     12675     12678     12680
     12672     12675     12678     12681     12673     12672     12675     12676
     12673     12672     12675     12677     12673     12672     12675     12678
     12674     12672     12675     12676     12674     12672     12675     12677
     12674     12672     12675     12678     12675     12678     12681     12682
     12675     12678     12681     12683     12675     12678     12681     12684
     12676     12675     12678     12679     12676     12675     12678     12680
     12676     12675     12678     12681     12677     12675     12678     12679
     12677     12675     12678     12680     12677     12675     12678     12681
     12678     12681     12684     12685     12678     12681     12684     12686
     12678     12681     12684     12687     12679     12678     12681     12682
     12679     12678     12681     12683     12679     12678     12681     12684
     12680     12678     12681     12682     12680     12678     12681     12683
     12680     12678     12681     12684     12681     12684     12687     12688
     12681     12684     12687     12689     12681     12684     12687     12690
     12682     12681     12684     12685     12682     12681     12684     12686
     12682     12681     12684     12687     12683     12681     12684     12685
     12683     12681     12684     12686     12683     12681     12684     12687
     12684     12687     12690     12691     12684     12687     12690     12692
     12684     12687     12690     12693     12685     12684     12687     12688
     12685     12684     12687     12689     12685     12684     12687     12690
     12686     12684     12687     12688     12686     12684     12687     12689
     12686     12684     12687     12690     12687     12690     12693     12694
     12687     12690     12693     12695     12687     12690     12693     12696
     12688     12687     12690     12691     12688     12687     12690     12692
     12688     12687     12690     12693     12689     12687     12690     12691
     12689     12687     12690     12692     12689     12687     12690     12693
     12690     12693     12696     12697     12690     12693     12696     12698
     12690     12693     12696     12699     12691     12690     12693     12694
     12691     12690     12693     12695     12691     12690     12693     12696
     12692     12690     12693     12694     12692     12690     12693     12695
     12692     12690     12693     12696     12693     12696     12699     12700
     12693     12696     12699     12701     12693     12696     12699     12702
     12694     12693     12696     12697     12694     12693     12696     12698
     12694     12693     12696     12699     12695     12693     12696     12697
     12695     12693     12696     12698     12695     12693     12696     12699
     12697     12696     12699     12700     12697     12696     12699     12701
     12697     12696     12699     12702     12698     12696     12699     12700
     12698     12696     12699     12701     12698     12696     12699     12702
     12703     12704     12719     12720     12703     12704     12719     12721
     12703     12704     12719     12725     12704     12703     12707     12708
     12704     12703     12707     12709     12704     12703     12707     12710
     12704     12703     12711     12712     12704     12703     12711     12713
     12704     12703     12711     12714     12704     12703     12715     12716
     12704     12703     12715     12717     12704     12703     12715     12718
     12704     12719     12725     12722     12705     12704     12703     12707
     12705     12704     12703     12711     12705     12704     12703     12715
     12705     12704     12719     12720     12705     12704     12719     12721
     12705     12704     12719     12725     12706     12704     12703     12707
     12706     12704     12703     12711     12706     12704     12703     12715
     12706     12704     12719     12720     12706     12704     12719     12721
     12706     12704     12719     12725     12707     12703     12704     12719
     12707     12703     12711     12712     12707     12703     12711     12713
     12707     12703     12711     12714     12707     12703     12715     12716
     12707     12703     12715     12717     12707     12703     12715     12718
     12708     12707     12703     12711     12708     12707     12703     12715
     12709     12707     12703     12711     12709     12707     12703     12715
     12710     12707     12703     12711     12710     12707     12703     12715
     12711     12703     12704     12719     12711     12703     12715     12716
     12711     12703     12715     12717     12711     12703     12715     12718
     12712     12711     12703     12715     12713     12711     12703     12715
     12714     12711     12703     12715     12715     12703     12704     12719
     12719     12725     12722     12723     12719     12725     12722     12724
     12719     12725     12722     12726     12720     12719     12725     12722
     12721     12719     12725     12722     12722     12726     12727     12728
     12722     12726     12727     12729     12722     12726     12727     12730
     12723     12722     12726     12727     12724     12722     12726     12727
     12725     12722     12726     12727     12726     12727     12730     12731
     12726     12727     12730     12732     12726     12727     12730     12738
     12727     12730     12732     12733     12727     12730     12738     12739
     12727     12730     12738     12740     12727     12730     12738     12741
     12728     12727     12730     12731     12728     12727     12730     12732
     12728     12727     12730     12738     12729     12727     12730     12731
     12729     12727     12730     12732     12729     12727     12730     12738
     12730     12732     12733     12734     12730     12732     12733     12735
     12730     12738     12741     12742     12731     12730     12732     12733
     12731     12730     12738     12739     12731     12730     12738     12740
     12731     12730     12738     12741     12732     12730     12738     12739
     12732     12730     12738     12740     12732     12730     12738     12741
     12732     12733     12735     12736     12732     12733     12735     12737
     12732     12733     12735     12747     12733     12732     12730     12738
     12733     12735     12747     12748     12733     12735     12747     12749
     12733     12735     12747     12750     12734     12733     12735     12736
     12734     12733     12735     12737     12734     12733     12735     12747
     12735     12747     12750     12751     12735     12747     12750     12752
     12735     12747     12750     12753     12736     12735     12747     12748
     12736     12735     12747     12749     12736     12735     12747     12750
     12737     12735     12747     12748     12737     12735     12747     12749
     12737     12735     12747     12750     12738     12741     12742     12743
     12738     12741     12742     12744     12739     12738     12741     12742
     12740     12738     12741     12742     12741     12742     12744     12745
     12741     12742     12744     12746     12741     12742     12744     12794
     12742     12744     12794     12795     12742     12744     12794     12796
     12742     12744     12794     12797     12743     12742     12744     12745
     12743     12742     12744     12746     12743     12742     12744     12794
     12744     12794     12797     12798     12744     12794     12797     12799
     12744     12794     12797     12800     12745     12744     12794     12795
     12745     12744     12794     12796     12745     12744     12794     12797
     12746     12744     12794     12795     12746     12744     12794     12796
     12746     12744     12794     12797     12747     12750     12753     12754
     12747     12750     12753     12755     12747     12750     12753     12756
     12748     12747     12750     12751     12748     12747     12750     12752
     12748     12747     12750     12753     12749     12747     12750     12751
     12749     12747     12750     12752     12749     12747     12750     12753
     12750     12753     12756     12757     12750     12753     12756     12758
     12750     12753     12756     12759     12751     12750     12753     12754
     12751     12750     12753     12755     12751     12750     12753     12756
     12752     12750     12753     12754     12752     12750     12753     12755
     12752     12750     12753     12756     12753     12756     12759     12760
     12753     12756     12759     12761     12753     12756     12759     12762
     12754     12753     12756     12757     12754     12753     12756     12758
     12754     12753     12756     12759     12755     12753     12756     12757
     12755     12753     12756     12758     12755     12753     12756     12759
     12756     12759     12762     12763     12756     12759     12762     12764
     12756     12759     12762     12765     12757     12756     12759     12760
     12757     12756     12759     12761     12757     12756     12759     12762
     12758     12756     12759     12760     12758     12756     12759     12761
     12758     12756     12759     12762     12759     12762     12765     12766
     12759     12762     12765     12767     12760     12759     12762     12763
     12760     12759     12762     12764     12760     12759     12762     12765
     12761     12759     12762     12763     12761     12759     12762     12764
     12761     12759     12762     12765     12762     12765     12767     12768
     12762     12765     12767     12769     12763     12762     12765     12766
     12763     12762     12765     12767     12764     12762     12765     12766
     12764     12762     12765     12767     12765     12767     12769     12770
     12765     12767     12769     12771     12765     12767     12769     12772
     12766     12765     12767     12768     12766     12765     12767     12769
     12767     12769     12772     12773     12767     12769     12772     12774
     12767     12769     12772     12775     12768     12767     12769     12770
     12768     12767     12769     12771     12768     12767     12769     12772
     12769     12772     12775     12776     12769     12772     12775     12777
     12769     12772     12775     12778     12770     12769     12772     12773
     12770     12769     12772     12774     12770     12769     12772     12775
     12771     12769     12772     12773     12771     12769     12772     12774
     12771     12769     12772     12775     12772     12775     12778     12779
     12772     12775     12778     12780     12772     12775     12778     12781
     12773     12772     12775     12776     12773     12772     12775     12777
     12773     12772     12775     12778     12774     12772     12775     12776
     12774     12772     12775     12777     12774     12772     12775     12778
     12775     12778     12781     12782     12775     12778     12781     12783
     12775     12778     12781     12784     12776     12775     12778     12779
     12776     12775     12778     12780     12776     12775     12778     12781
     12777     12775     12778     12779     12777     12775     12778     12780
     12777     12775     12778     12781     12778     12781     12784     12785
     12778     12781     12784     12786     12778     12781     12784     12787
     12779     12778     12781     12782     12779     12778     12781     12783
     12779     12778     12781     12784     12780     12778     12781     12782
     12780     12778     12781     12783     12780     12778     12781     12784
     12781     12784     12787     12788     12781     12784     12787     12789
     12781     12784     12787     12790     12782     12781     12784     12785
     12782     12781     12784     12786     12782     12781     12784     12787
     12783     12781     12784     12785     12783     12781     12784     12786
     12783     12781     12784     12787     12784     12787     12790     12791
     12784     12787     12790     12792     12784     12787     12790     12793
     12785     12784     12787     12788     12785     12784     12787     12789
     12785     12784     12787     12790     12786     12784     12787     12788
     12786     12784     12787     12789     12786     12784     12787     12790
     12788     12787     12790     12791     12788     12787     12790     12792
     12788     12787     12790     12793     12789     12787     12790     12791
     12789     12787     12790     12792     12789     12787     12790     12793
     12794     12797     12800     12801     12794     12797     12800     12802
     12794     12797     12800     12803     12795     12794     12797     12798
     12795     12794     12797     12799     12795     12794     12797     12800
     12796     12794     12797     12798     12796     12794     12797     12799
     12796     12794     12797     12800     12797     12800     12803     12804
     12797     12800     12803     12805     12797     12800     12803     12806
     12798     12797     12800     12801     12798     12797     12800     12802
     12798     12797     12800     12803     12799     12797     12800     12801
     12799     12797     12800     12802     12799     12797     12800     12803
     12800     12803     12806     12807     12800     12803     12806     12808
     12800     12803     12806     12809     12801     12800     12803     12804
     12801     12800     12803     12805     12801     12800     12803     12806
     12802     12800     12803     12804     12802     12800     12803     12805
     12802     12800     12803     12806     12803     12806     12809     12810
     12803     12806     12809     12811     12803     12806     12809     12812
     12804     12803     12806     12807     12804     12803     12806     12808
     12804     12803     12806     12809     12805     12803     12806     12807
     12805     12803     12806     12808     12805     12803     12806     12809
     12806     12809     12812     12813     12806     12809     12812     12814
     12806     12809     12812     12815     12807     12806     12809     12810
     12807     12806     12809     12811     12807     12806     12809     12812
     12808     12806     12809     12810     12808     12806     12809     12811
     12808     12806     12809     12812     12809     12812     12815     12816
     12809     12812     12815     12817     12809     12812     12815     12818
     12810     12809     12812     12813     12810     12809     12812     12814
     12810     12809     12812     12815     12811     12809     12812     12813
     12811     12809     12812     12814     12811     12809     12812     12815
     12812     12815     12818     12819     12812     12815     12818     12820
     12812     12815     12818     12821     12813     12812     12815     12816
     12813     12812     12815     12817     12813     12812     12815     12818
     12814     12812     12815     12816     12814     12812     12815     12817
     12814     12812     12815     12818     12815     12818     12821     12822
     12815     12818     12821     12823     12815     12818     12821     12824
     12816     12815     12818     12819     12816     12815     12818     12820
     12816     12815     12818     12821     12817     12815     12818     12819
     12817     12815     12818     12820     12817     12815     12818     12821
     12818     12821     12824     12825     12818     12821     12824     12826
     12818     12821     12824     12827     12819     12818     12821     12822
     12819     12818     12821     12823     12819     12818     12821     12824
     12820     12818     12821     12822     12820     12818     12821     12823
     12820     12818     12821     12824     12821     12824     12827     12828
     12821     12824     12827     12829     12821     12824     12827     12830
     12822     12821     12824     12825     12822     12821     12824     12826
     12822     12821     12824     12827     12823     12821     12824     12825
     12823     12821     12824     12826     12823     12821     12824     12827
     12824     12827     12830     12831     12824     12827     12830     12832
     12824     12827     12830     12833     12825     12824     12827     12828
     12825     12824     12827     12829     12825     12824     12827     12830
     12826     12824     12827     12828     12826     12824     12827     12829
     12826     12824     12827     12830     12827     12830     12833     12834
     12827     12830     12833     12835     12827     12830     12833     12836
     12828     12827     12830     12831     12828     12827     12830     12832
     12828     12827     12830     12833     12829     12827     12830     12831
     12829     12827     12830     12832     12829     12827     12830     12833
     12831     12830     12833     12834     12831     12830     12833     12835
     12831     12830     12833     12836     12832     12830     12833     12834
     12832     12830     12833     12835     12832     12830     12833     12836
     12837     12838     12853     12854     12837     12838     12853     12855
     12837     12838     12853     12859     12838     12837     12841     12842
     12838     12837     12841     12843     12838     12837     12841     12844
     12838     12837     12845     12846     12838     12837     12845     12847
     12838     12837     12845     12848     12838     12837     12849     12850
     12838     12837     12849     12851     12838     12837     12849     12852
     12838     12853     12859     12856     12839     12838     12837     12841
     12839     12838     12837     12845     12839     12838     12837     12849
     12839     12838     12853     12854     12839     12838     12853     12855
     12839     12838     12853     12859     12840     12838     12837     12841
     12840     12838     12837     12845     12840     12838     12837     12849
     12840     12838     12853     12854     12840     12838     12853     12855
     12840     12838     12853     12859     12841     12837     12838     12853
     12841     12837     12845     12846     12841     12837     12845     12847
     12841     12837     12845     12848     12841     12837     12849     12850
     12841     12837     12849     12851     12841     12837     12849     12852
     12842     12841     12837     12845     12842     12841     12837     12849
     12843     12841     12837     12845     12843     12841     12837     12849
     12844     12841     12837     12845     12844     12841     12837     12849
     12845     12837     12838     12853     12845     12837     12849     12850
     12845     12837     12849     12851     12845     12837     12849     12852
     12846     12845     12837     12849     12847     12845     12837     12849
     12848     12845     12837     12849     12849     12837     12838     12853
     12853     12859     12856     12857     12853     12859     12856     12858
     12853     12859     12856     12860     12854     12853     12859     12856
     12855     12853     12859     12856     12856     12860     12861     12862
     12856     12860     12861     12863     12856     12860     12861     12864
     12857     12856     12860     12861     12858     12856     12860     12861
     12859     12856     12860     12861     12860     12861     12864     12865
     12860     12861     12864     12866     12860     12861     12864     12872
     12861     12864     12866     12867     12861     12864     12872     12873
     12861     12864     12872     12874     12861     12864     12872     12875
     12862     12861     12864     12865     12862     12861     12864     12866
     12862     12861     12864     12872     12863     12861     12864     12865
     12863     12861     12864     12866     12863     12861     12864     12872
     12864     12866     12867     12868     12864     12866     12867     12869
     12864     12872     12875     12876     12865     12864     12866     12867
     12865     12864     12872     12873     12865     12864     12872     12874
     12865     12864     12872     12875     12866     12864     12872     12873
     12866     12864     12872     12874     12866     12864     12872     12875
     12866     12867     12869     12870     12866     12867     12869     12871
     12866     12867     12869     12881     12867     12866     12864     12872
     12867     12869     12881     12882     12867     12869     12881     12883
     12867     12869     12881     12884     12868     12867     12869     12870
     12868     12867     12869     12871     12868     12867     12869     12881
     12869     12881     12884     12885     12869     12881     12884     12886
     12869     12881     12884     12887     12870     12869     12881     12882
     12870     12869     12881     12883     12870     12869     12881     12884
     12871     12869     12881     12882     12871     12869     12881     12883
     12871     12869     12881     12884     12872     12875     12876     12877
     12872     12875     12876     12878     12873     12872     12875     12876
     12874     12872     12875     12876     12875     12876     12878     12879
     12875     12876     12878     12880     12875     12876     12878     12928
     12876     12878     12928     12929     12876     12878     12928     12930
     12876     12878     12928     12931     12877     12876     12878     12879
     12877     12876     12878     12880     12877     12876     12878     12928
     12878     12928     12931     12932     12878     12928     12931     12933
     12878     12928     12931     12934     12879     12878     12928     12929
     12879     12878     12928     12930     12879     12878     12928     12931
     12880     12878     12928     12929     12880     12878     12928     12930
     12880     12878     12928     12931     12881     12884     12887     12888
     12881     12884     12887     12889     12881     12884     12887     12890
     12882     12881     12884     12885     12882     12881     12884     12886
     12882     12881     12884     12887     12883     12881     12884     12885
     12883     12881     12884     12886     12883     12881     12884     12887
     12884     12887     12890     12891     12884     12887     12890     12892
     12884     12887     12890     12893     12885     12884     12887     12888
     12885     12884     12887     12889     12885     12884     12887     12890
     12886     12884     12887     12888     12886     12884     12887     12889
     12886     12884     12887     12890     12887     12890     12893     12894
     12887     12890     12893     12895     12887     12890     12893     12896
     12888     12887     12890     12891     12888     12887     12890     12892
     12888     12887     12890     12893     12889     12887     12890     12891
     12889     12887     12890     12892     12889     12887     12890     12893
     12890     12893     12896     12897     12890     12893     12896     12898
     12890     12893     12896     12899     12891     12890     12893     12894
     12891     12890     12893     12895     12891     12890     12893     12896
     12892     12890     12893     12894     12892     12890     12893     12895
     12892     12890     12893     12896     12893     12896     12899     12900
     12893     12896     12899     12901     12894     12893     12896     12897
     12894     12893     12896     12898     12894     12893     12896     12899
     12895     12893     12896     12897     12895     12893     12896     12898
     12895     12893     12896     12899     12896     12899     12901     12902
     12896     12899     12901     12903     12897     12896     12899     12900
     12897     12896     12899     12901     12898     12896     12899     12900
     12898     12896     12899     12901     12899     12901     12903     12904
     12899     12901     12903     12905     12899     12901     12903     12906
     12900     12899     12901     12902     12900     12899     12901     12903
     12901     12903     12906     12907     12901     12903     12906     12908
     12901     12903     12906     12909     12902     12901     12903     12904
     12902     12901     12903     12905     12902     12901     12903     12906
     12903     12906     12909     12910     12903     12906     12909     12911
     12903     12906     12909     12912     12904     12903     12906     12907
     12904     12903     12906     12908     12904     12903     12906     12909
     12905     12903     12906     12907     12905     12903     12906     12908
     12905     12903     12906     12909     12906     12909     12912     12913
     12906     12909     12912     12914     12906     12909     12912     12915
     12907     12906     12909     12910     12907     12906     12909     12911
     12907     12906     12909     12912     12908     12906     12909     12910
     12908     12906     12909     12911     12908     12906     12909     12912
     12909     12912     12915     12916     12909     12912     12915     12917
     12909     12912     12915     12918     12910     12909     12912     12913
     12910     12909     12912     12914     12910     12909     12912     12915
     12911     12909     12912     12913     12911     12909     12912     12914
     12911     12909     12912     12915     12912     12915     12918     12919
     12912     12915     12918     12920     12912     12915     12918     12921
     12913     12912     12915     12916     12913     12912     12915     12917
     12913     12912     12915     12918     12914     12912     12915     12916
     12914     12912     12915     12917     12914     12912     12915     12918
     12915     12918     12921     12922     12915     12918     12921     12923
     12915     12918     12921     12924     12916     12915     12918     12919
     12916     12915     12918     12920     12916     12915     12918     12921
     12917     12915     12918     12919     12917     12915     12918     12920
     12917     12915     12918     12921     12918     12921     12924     12925
     12918     12921     12924     12926     12918     12921     12924     12927
     12919     12918     12921     12922     12919     12918     12921     12923
     12919     12918     12921     12924     12920     12918     12921     12922
     12920     12918     12921     12923     12920     12918     12921     12924
     12922     12921     12924     12925     12922     12921     12924     12926
     12922     12921     12924     12927     12923     12921     12924     12925
     12923     12921     12924     12926     12923     12921     12924     12927
     12928     12931     12934     12935     12928     12931     12934     12936
     12928     12931     12934     12937     12929     12928     12931     12932
     12929     12928     12931     12933     12929     12928     12931     12934
     12930     12928     12931     12932     12930     12928     12931     12933
     12930     12928     12931     12934     12931     12934     12937     12938
     12931     12934     12937     12939     12931     12934     12937     12940
     12932     12931     12934     12935     12932     12931     12934     12936
     12932     12931     12934     12937     12933     12931     12934     12935
     12933     12931     12934     12936     12933     12931     12934     12937
     12934     12937     12940     12941     12934     12937     12940     12942
     12934     12937     12940     12943     12935     12934     12937     12938
     12935     12934     12937     12939     12935     12934     12937     12940
     12936     12934     12937     12938     12936     12934     12937     12939
     12936     12934     12937     12940     12937     12940     12943     12944
     12937     12940     12943     12945     12937     12940     12943     12946
     12938     12937     12940     12941     12938     12937     12940     12942
     12938     12937     12940     12943     12939     12937     12940     12941
     12939     12937     12940     12942     12939     12937     12940     12943
     12940     12943     12946     12947     12940     12943     12946     12948
     12940     12943     12946     12949     12941     12940     12943     12944
     12941     12940     12943     12945     12941     12940     12943     12946
     12942     12940     12943     12944     12942     12940     12943     12945
     12942     12940     12943     12946     12943     12946     12949     12950
     12943     12946     12949     12951     12943     12946     12949     12952
     12944     12943     12946     12947     12944     12943     12946     12948
     12944     12943     12946     12949     12945     12943     12946     12947
     12945     12943     12946     12948     12945     12943     12946     12949
     12946     12949     12952     12953     12946     12949     12952     12954
     12946     12949     12952     12955     12947     12946     12949     12950
     12947     12946     12949     12951     12947     12946     12949     12952
     12948     12946     12949     12950     12948     12946     12949     12951
     12948     12946     12949     12952     12949     12952     12955     12956
     12949     12952     12955     12957     12949     12952     12955     12958
     12950     12949     12952     12953     12950     12949     12952     12954
     12950     12949     12952     12955     12951     12949     12952     12953
     12951     12949     12952     12954     12951     12949     12952     12955
     12952     12955     12958     12959     12952     12955     12958     12960
     12952     12955     12958     12961     12953     12952     12955     12956
     12953     12952     12955     12957     12953     12952     12955     12958
     12954     12952     12955     12956     12954     12952     12955     12957
     12954     12952     12955     12958     12955     12958     12961     12962
     12955     12958     12961     12963     12955     12958     12961     12964
     12956     12955     12958     12959     12956     12955     12958     12960
     12956     12955     12958     12961     12957     12955     12958     12959
     12957     12955     12958     12960     12957     12955     12958     12961
     12958     12961     12964     12965     12958     12961     12964     12966
     12958     12961     12964     12967     12959     12958     12961     12962
     12959     12958     12961     12963     12959     12958     12961     12964
     12960     12958     12961     12962     12960     12958     12961     12963
     12960     12958     12961     12964     12961     12964     12967     12968
     12961     12964     12967     12969     12961     12964     12967     12970
     12962     12961     12964     12965     12962     12961     12964     12966
     12962     12961     12964     12967     12963     12961     12964     12965
     12963     12961     12964     12966     12963     12961     12964     12967
     12965     12964     12967     12968     12965     12964     12967     12969
     12965     12964     12967     12970     12966     12964     12967     12968
     12966     12964     12967     12969     12966     12964     12967     12970
     12971     12972     12987     12988     12971     12972     12987     12989
     12971     12972     12987     12993     12972     12971     12975     12976
     12972     12971     12975     12977     12972     12971     12975     12978
     12972     12971     12979     12980     12972     12971     12979     12981
     12972     12971     12979     12982     12972     12971     12983     12984
     12972     12971     12983     12985     12972     12971     12983     12986
     12972     12987     12993     12990     12973     12972     12971     12975
     12973     12972     12971     12979     12973     12972     12971     12983
     12973     12972     12987     12988     12973     12972     12987     12989
     12973     12972     12987     12993     12974     12972     12971     12975
     12974     12972     12971     12979     12974     12972     12971     12983
     12974     12972     12987     12988     12974     12972     12987     12989
     12974     12972     12987     12993     12975     12971     12972     12987
     12975     12971     12979     12980     12975     12971     12979     12981
     12975     12971     12979     12982     12975     12971     12983     12984
     12975     12971     12983     12985     12975     12971     12983     12986
     12976     12975     12971     12979     12976     12975     12971     12983
     12977     12975     12971     12979     12977     12975     12971     12983
     12978     12975     12971     12979     12978     12975     12971     12983
     12979     12971     12972     12987     12979     12971     12983     12984
     12979     12971     12983     12985     12979     12971     12983     12986
     12980     12979     12971     12983     12981     12979     12971     12983
     12982     12979     12971     12983     12983     12971     12972     12987
     12987     12993     12990     12991     12987     12993     12990     12992
     12987     12993     12990     12994     12988     12987     12993     12990
     12989     12987     12993     12990     12990     12994     12995     12996
     12990     12994     12995     12997     12990     12994     12995     12998
     12991     12990     12994     12995     12992     12990     12994     12995
     12993     12990     12994     12995     12994     12995     12998     12999
     12994     12995     12998     13000     12994     12995     12998     13006
     12995     12998     13000     13001     12995     12998     13006     13007
     12995     12998     13006     13008     12995     12998     13006     13009
     12996     12995     12998     12999     12996     12995     12998     13000
     12996     12995     12998     13006     12997     12995     12998     12999
     12997     12995     12998     13000     12997     12995     12998     13006
     12998     13000     13001     13002     12998     13000     13001     13003
     12998     13006     13009     13010     12999     12998     13000     13001
     12999     12998     13006     13007     12999     12998     13006     13008
     12999     12998     13006     13009     13000     12998     13006     13007
     13000     12998     13006     13008     13000     12998     13006     13009
     13000     13001     13003     13004     13000     13001     13003     13005
     13000     13001     13003     13015     13001     13000     12998     13006
     13001     13003     13015     13016     13001     13003     13015     13017
     13001     13003     13015     13018     13002     13001     13003     13004
     13002     13001     13003     13005     13002     13001     13003     13015
     13003     13015     13018     13019     13003     13015     13018     13020
     13003     13015     13018     13021     13004     13003     13015     13016
     13004     13003     13015     13017     13004     13003     13015     13018
     13005     13003     13015     13016     13005     13003     13015     13017
     13005     13003     13015     13018     13006     13009     13010     13011
     13006     13009     13010     13012     13007     13006     13009     13010
     13008     13006     13009     13010     13009     13010     13012     13013
     13009     13010     13012     13014     13009     13010     13012     13062
     13010     13012     13062     13063     13010     13012     13062     13064
     13010     13012     13062     13065     13011     13010     13012     13013
     13011     13010     13012     13014     13011     13010     13012     13062
     13012     13062     13065     13066     13012     13062     13065     13067
     13012     13062     13065     13068     13013     13012     13062     13063
     13013     13012     13062     13064     13013     13012     13062     13065
     13014     13012     13062     13063     13014     13012     13062     13064
     13014     13012     13062     13065     13015     13018     13021     13022
     13015     13018     13021     13023     13015     13018     13021     13024
     13016     13015     13018     13019     13016     13015     13018     13020
     13016     13015     13018     13021     13017     13015     13018     13019
     13017     13015     13018     13020     13017     13015     13018     13021
     13018     13021     13024     13025     13018     13021     13024     13026
     13018     13021     13024     13027     13019     13018     13021     13022
     13019     13018     13021     13023     13019     13018     13021     13024
     13020     13018     13021     13022     13020     13018     13021     13023
     13020     13018     13021     13024     13021     13024     13027     13028
     13021     13024     13027     13029     13021     13024     13027     13030
     13022     13021     13024     13025     13022     13021     13024     13026
     13022     13021     13024     13027     13023     13021     13024     13025
     13023     13021     13024     13026     13023     13021     13024     13027
     13024     13027     13030     13031     13024     13027     13030     13032
     13024     13027     13030     13033     13025     13024     13027     13028
     13025     13024     13027     13029     13025     13024     13027     13030
     13026     13024     13027     13028     13026     13024     13027     13029
     13026     13024     13027     13030     13027     13030     13033     13034
     13027     13030     13033     13035     13028     13027     13030     13031
     13028     13027     13030     13032     13028     13027     13030     13033
     13029     13027     13030     13031     13029     13027     13030     13032
     13029     13027     13030     13033     13030     13033     13035     13036
     13030     13033     13035     13037     13031     13030     13033     13034
     13031     13030     13033     13035     13032     13030     13033     13034
     13032     13030     13033     13035     13033     13035     13037     13038
     13033     13035     13037     13039     13033     13035     13037     13040
     13034     13033     13035     13036     13034     13033     13035     13037
     13035     13037     13040     13041     13035     13037     13040     13042
     13035     13037     13040     13043     13036     13035     13037     13038
     13036     13035     13037     13039     13036     13035     13037     13040
     13037     13040     13043     13044     13037     13040     13043     13045
     13037     13040     13043     13046     13038     13037     13040     13041
     13038     13037     13040     13042     13038     13037     13040     13043
     13039     13037     13040     13041     13039     13037     13040     13042
     13039     13037     13040     13043     13040     13043     13046     13047
     13040     13043     13046     13048     13040     13043     13046     13049
     13041     13040     13043     13044     13041     13040     13043     13045
     13041     13040     13043     13046     13042     13040     13043     13044
     13042     13040     13043     13045     13042     13040     13043     13046
     13043     13046     13049     13050     13043     13046     13049     13051
     13043     13046     13049     13052     13044     13043     13046     13047
     13044     13043     13046     13048     13044     13043     13046     13049
     13045     13043     13046     13047     13045     13043     13046     13048
     13045     13043     13046     13049     13046     13049     13052     13053
     13046     13049     13052     13054     13046     13049     13052     13055
     13047     13046     13049     13050     13047     13046     13049     13051
     13047     13046     13049     13052     13048     13046     13049     13050
     13048     13046     13049     13051     13048     13046     13049     13052
     13049     13052     13055     13056     13049     13052     13055     13057
     13049     13052     13055     13058     13050     13049     13052     13053
     13050     13049     13052     13054     13050     13049     13052     13055
     13051     13049     13052     13053     13051     13049     13052     13054
     13051     13049     13052     13055     13052     13055     13058     13059
     13052     13055     13058     13060     13052     13055     13058     13061
     13053     13052     13055     13056     13053     13052     13055     13057
     13053     13052     13055     13058     13054     13052     13055     13056
     13054     13052     13055     13057     13054     13052     13055     13058
     13056     13055     13058     13059     13056     13055     13058     13060
     13056     13055     13058     13061     13057     13055     13058     13059
     13057     13055     13058     13060     13057     13055     13058     13061
     13062     13065     13068     13069     13062     13065     13068     13070
     13062     13065     13068     13071     13063     13062     13065     13066
     13063     13062     13065     13067     13063     13062     13065     13068
     13064     13062     13065     13066     13064     13062     13065     13067
     13064     13062     13065     13068     13065     13068     13071     13072
     13065     13068     13071     13073     13065     13068     13071     13074
     13066     13065     13068     13069     13066     13065     13068     13070
     13066     13065     13068     13071     13067     13065     13068     13069
     13067     13065     13068     13070     13067     13065     13068     13071
     13068     13071     13074     13075     13068     13071     13074     13076
     13068     13071     13074     13077     13069     13068     13071     13072
     13069     13068     13071     13073     13069     13068     13071     13074
     13070     13068     13071     13072     13070     13068     13071     13073
     13070     13068     13071     13074     13071     13074     13077     13078
     13071     13074     13077     13079     13071     13074     13077     13080
     13072     13071     13074     13075     13072     13071     13074     13076
     13072     13071     13074     13077     13073     13071     13074     13075
     13073     13071     13074     13076     13073     13071     13074     13077
     13074     13077     13080     13081     13074     13077     13080     13082
     13074     13077     13080     13083     13075     13074     13077     13078
     13075     13074     13077     13079     13075     13074     13077     13080
     13076     13074     13077     13078     13076     13074     13077     13079
     13076     13074     13077     13080     13077     13080     13083     13084
     13077     13080     13083     13085     13077     13080     13083     13086
     13078     13077     13080     13081     13078     13077     13080     13082
     13078     13077     13080     13083     13079     13077     13080     13081
     13079     13077     13080     13082     13079     13077     13080     13083
     13080     13083     13086     13087     13080     13083     13086     13088
     13080     13083     13086     13089     13081     13080     13083     13084
     13081     13080     13083     13085     13081     13080     13083     13086
     13082     13080     13083     13084     13082     13080     13083     13085
     13082     13080     13083     13086     13083     13086     13089     13090
     13083     13086     13089     13091     13083     13086     13089     13092
     13084     13083     13086     13087     13084     13083     13086     13088
     13084     13083     13086     13089     13085     13083     13086     13087
     13085     13083     13086     13088     13085     13083     13086     13089
     13086     13089     13092     13093     13086     13089     13092     13094
     13086     13089     13092     13095     13087     13086     13089     13090
     13087     13086     13089     13091     13087     13086     13089     13092
     13088     13086     13089     13090     13088     13086     13089     13091
     13088     13086     13089     13092     13089     13092     13095     13096
     13089     13092     13095     13097     13089     13092     13095     13098
     13090     13089     13092     13093     13090     13089     13092     13094
     13090     13089     13092     13095     13091     13089     13092     13093
     13091     13089     13092     13094     13091     13089     13092     13095
     13092     13095     13098     13099     13092     13095     13098     13100
     13092     13095     13098     13101     13093     13092     13095     13096
     13093     13092     13095     13097     13093     13092     13095     13098
     13094     13092     13095     13096     13094     13092     13095     13097
     13094     13092     13095     13098     13095     13098     13101     13102
     13095     13098     13101     13103     13095     13098     13101     13104
     13096     13095     13098     13099     13096     13095     13098     13100
     13096     13095     13098     13101     13097     13095     13098     13099
     13097     13095     13098     13100     13097     13095     13098     13101
     13099     13098     13101     13102     13099     13098     13101     13103
     13099     13098     13101     13104     13100     13098     13101     13102
     13100     13098     13101     13103     13100     13098     13101     13104
     13105     13106     13121     13122     13105     13106     13121     13123
     13105     13106     13121     13127     13106     13105     13109     13110
     13106     13105     13109     13111     13106     13105     13109     13112
     13106     13105     13113     13114     13106     13105     13113     13115
     13106     13105     13113     13116     13106     13105     13117     13118
     13106     13105     13117     13119     13106     13105     13117     13120
     13106     13121     13127     13124     13107     13106     13105     13109
     13107     13106     13105     13113     13107     13106     13105     13117
     13107     13106     13121     13122     13107     13106     13121     13123
     13107     13106     13121     13127     13108     13106     13105     13109
     13108     13106     13105     13113     13108     13106     13105     13117
     13108     13106     13121     13122     13108     13106     13121     13123
     13108     13106     13121     13127     13109     13105     13106     13121
     13109     13105     13113     13114     13109     13105     13113     13115
     13109     13105     13113     13116     13109     13105     13117     13118
     13109     13105     13117     13119     13109     13105     13117     13120
     13110     13109     13105     13113     13110     13109     13105     13117
     13111     13109     13105     13113     13111     13109     13105     13117
     13112     13109     13105     13113     13112     13109     13105     13117
     13113     13105     13106     13121     13113     13105     13117     13118
     13113     13105     13117     13119     13113     13105     13117     13120
     13114     13113     13105     13117     13115     13113     13105     13117
     13116     13113     13105     13117     13117     13105     13106     13121
     13121     13127     13124     13125     13121     13127     13124     13126
     13121     13127     13124     13128     13122     13121     13127     13124
     13123     13121     13127     13124     13124     13128     13129     13130
     13124     13128     13129     13131     13124     13128     13129     13132
     13125     13124     13128     13129     13126     13124     13128     13129
     13127     13124     13128     13129     13128     13129     13132     13133
     13128     13129     13132     13134     13128     13129     13132     13140
     13129     13132     13134     13135     13129     13132     13140     13141
     13129     13132     13140     13142     13129     13132     13140     13143
     13130     13129     13132     13133     13130     13129     13132     13134
     13130     13129     13132     13140     13131     13129     13132     13133
     13131     13129     13132     13134     13131     13129     13132     13140
     13132     13134     13135     13136     13132     13134     13135     13137
     13132     13140     13143     13144     13133     13132     13134     13135
     13133     13132     13140     13141     13133     13132     13140     13142
     13133     13132     13140     13143     13134     13132     13140     13141
     13134     13132     13140     13142     13134     13132     13140     13143
     13134     13135     13137     13138     13134     13135     13137     13139
     13134     13135     13137     13149     13135     13134     13132     13140
     13135     13137     13149     13150     13135     13137     13149     13151
     13135     13137     13149     13152     13136     13135     13137     13138
     13136     13135     13137     13139     13136     13135     13137     13149
     13137     13149     13152     13153     13137     13149     13152     13154
     13137     13149     13152     13155     13138     13137     13149     13150
     13138     13137     13149     13151     13138     13137     13149     13152
     13139     13137     13149     13150     13139     13137     13149     13151
     13139     13137     13149     13152     13140     13143     13144     13145
     13140     13143     13144     13146     13141     13140     13143     13144
     13142     13140     13143     13144     13143     13144     13146     13147
     13143     13144     13146     13148     13143     13144     13146     13196
     13144     13146     13196     13197     13144     13146     13196     13198
     13144     13146     13196     13199     13145     13144     13146     13147
     13145     13144     13146     13148     13145     13144     13146     13196
     13146     13196     13199     13200     13146     13196     13199     13201
     13146     13196     13199     13202     13147     13146     13196     13197
     13147     13146     13196     13198     13147     13146     13196     13199
     13148     13146     13196     13197     13148     13146     13196     13198
     13148     13146     13196     13199     13149     13152     13155     13156
     13149     13152     13155     13157     13149     13152     13155     13158
     13150     13149     13152     13153     13150     13149     13152     13154
     13150     13149     13152     13155     13151     13149     13152     13153
     13151     13149     13152     13154     13151     13149     13152     13155
     13152     13155     13158     13159     13152     13155     13158     13160
     13152     13155     13158     13161     13153     13152     13155     13156
     13153     13152     13155     13157     13153     13152     13155     13158
     13154     13152     13155     13156     13154     13152     13155     13157
     13154     13152     13155     13158     13155     13158     13161     13162
     13155     13158     13161     13163     13155     13158     13161     13164
     13156     13155     13158     13159     13156     13155     13158     13160
     13156     13155     13158     13161     13157     13155     13158     13159
     13157     13155     13158     13160     13157     13155     13158     13161
     13158     13161     13164     13165     13158     13161     13164     13166
     13158     13161     13164     13167     13159     13158     13161     13162
     13159     13158     13161     13163     13159     13158     13161     13164
     13160     13158     13161     13162     13160     13158     13161     13163
     13160     13158     13161     13164     13161     13164     13167     13168
     13161     13164     13167     13169     13162     13161     13164     13165
     13162     13161     13164     13166     13162     13161     13164     13167
     13163     13161     13164     13165     13163     13161     13164     13166
     13163     13161     13164     13167     13164     13167     13169     13170
     13164     13167     13169     13171     13165     13164     13167     13168
     13165     13164     13167     13169     13166     13164     13167     13168
     13166     13164     13167     13169     13167     13169     13171     13172
     13167     13169     13171     13173     13167     13169     13171     13174
     13168     13167     13169     13170     13168     13167     13169     13171
     13169     13171     13174     13175     13169     13171     13174     13176
     13169     13171     13174     13177     13170     13169     13171     13172
     13170     13169     13171     13173     13170     13169     13171     13174
     13171     13174     13177     13178     13171     13174     13177     13179
     13171     13174     13177     13180     13172     13171     13174     13175
     13172     13171     13174     13176     13172     13171     13174     13177
     13173     13171     13174     13175     13173     13171     13174     13176
     13173     13171     13174     13177     13174     13177     13180     13181
     13174     13177     13180     13182     13174     13177     13180     13183
     13175     13174     13177     13178     13175     13174     13177     13179
     13175     13174     13177     13180     13176     13174     13177     13178
     13176     13174     13177     13179     13176     13174     13177     13180
     13177     13180     13183     13184     13177     13180     13183     13185
     13177     13180     13183     13186     13178     13177     13180     13181
     13178     13177     13180     13182     13178     13177     13180     13183
     13179     13177     13180     13181     13179     13177     13180     13182
     13179     13177     13180     13183     13180     13183     13186     13187
     13180     13183     13186     13188     13180     13183     13186     13189
     13181     13180     13183     13184     13181     13180     13183     13185
     13181     13180     13183     13186     13182     13180     13183     13184
     13182     13180     13183     13185     13182     13180     13183     13186
     13183     13186     13189     13190     13183     13186     13189     13191
     13183     13186     13189     13192     13184     13183     13186     13187
     13184     13183     13186     13188     13184     13183     13186     13189
     13185     13183     13186     13187     13185     13183     13186     13188
     13185     13183     13186     13189     13186     13189     13192     13193
     13186     13189     13192     13194     13186     13189     13192     13195
     13187     13186     13189     13190     13187     13186     13189     13191
     13187     13186     13189     13192     13188     13186     13189     13190
     13188     13186     13189     13191     13188     13186     13189     13192
     13190     13189     13192     13193     13190     13189     13192     13194
     13190     13189     13192     13195     13191     13189     13192     13193
     13191     13189     13192     13194     13191     13189     13192     13195
     13196     13199     13202     13203     13196     13199     13202     13204
     13196     13199     13202     13205     13197     13196     13199     13200
     13197     13196     13199     13201     13197     13196     13199     13202
     13198     13196     13199     13200     13198     13196     13199     13201
     13198     13196     13199     13202     13199     13202     13205     13206
     13199     13202     13205     13207     13199     13202     13205     13208
     13200     13199     13202     13203     13200     13199     13202     13204
     13200     13199     13202     13205     13201     13199     13202     13203
     13201     13199     13202     13204     13201     13199     13202     13205
     13202     13205     13208     13209     13202     13205     13208     13210
     13202     13205     13208     13211     13203     13202     13205     13206
     13203     13202     13205     13207     13203     13202     13205     13208
     13204     13202     13205     13206     13204     13202     13205     13207
     13204     13202     13205     13208     13205     13208     13211     13212
     13205     13208     13211     13213     13205     13208     13211     13214
     13206     13205     13208     13209     13206     13205     13208     13210
     13206     13205     13208     13211     13207     13205     13208     13209
     13207     13205     13208     13210     13207     13205     13208     13211
     13208     13211     13214     13215     13208     13211     13214     13216
     13208     13211     13214     13217     13209     13208     13211     13212
     13209     13208     13211     13213     13209     13208     13211     13214
     13210     13208     13211     13212     13210     13208     13211     13213
     13210     13208     13211     13214     13211     13214     13217     13218
     13211     13214     13217     13219     13211     13214     13217     13220
     13212     13211     13214     13215     13212     13211     13214     13216
     13212     13211     13214     13217     13213     13211     13214     13215
     13213     13211     13214     13216     13213     13211     13214     13217
     13214     13217     13220     13221     13214     13217     13220     13222
     13214     13217     13220     13223     13215     13214     13217     13218
     13215     13214     13217     13219     13215     13214     13217     13220
     13216     13214     13217     13218     13216     13214     13217     13219
     13216     13214     13217     13220     13217     13220     13223     13224
     13217     13220     13223     13225     13217     13220     13223     13226
     13218     13217     13220     13221     13218     13217     13220     13222
     13218     13217     13220     13223     13219     13217     13220     13221
     13219     13217     13220     13222     13219     13217     13220     13223
     13220     13223     13226     13227     13220     13223     13226     13228
     13220     13223     13226     13229     13221     13220     13223     13224
     13221     13220     13223     13225     13221     13220     13223     13226
     13222     13220     13223     13224     13222     13220     13223     13225
     13222     13220     13223     13226     13223     13226     13229     13230
     13223     13226     13229     13231     13223     13226     13229     13232
     13224     13223     13226     13227     13224     13223     13226     13228
     13224     13223     13226     13229     13225     13223     13226     13227
     13225     13223     13226     13228     13225     13223     13226     13229
     13226     13229     13232     13233     13226     13229     13232     13234
     13226     13229     13232     13235     13227     13226     13229     13230
     13227     13226     13229     13231     13227     13226     13229     13232
     13228     13226     13229     13230     13228     13226     13229     13231
     13228     13226     13229     13232     13229     13232     13235     13236
     13229     13232     13235     13237     13229     13232     13235     13238
     13230     13229     13232     13233     13230     13229     13232     13234
     13230     13229     13232     13235     13231     13229     13232     13233
     13231     13229     13232     13234     13231     13229     13232     13235
     13233     13232     13235     13236     13233     13232     13235     13237
     13233     13232     13235     13238     13234     13232     13235     13236
     13234     13232     13235     13237     13234     13232     13235     13238
     13239     13240     13255     13256     13239     13240     13255     13257
     13239     13240     13255     13261     13240     13239     13243     13244
     13240     13239     13243     13245     13240     13239     13243     13246
     13240     13239     13247     13248     13240     13239     13247     13249
     13240     13239     13247     13250     13240     13239     13251     13252
     13240     13239     13251     13253     13240     13239     13251     13254
     13240     13255     13261     13258     13241     13240     13239     13243
     13241     13240     13239     13247     13241     13240     13239     13251
     13241     13240     13255     13256     13241     13240     13255     13257
     13241     13240     13255     13261     13242     13240     13239     13243
     13242     13240     13239     13247     13242     13240     13239     13251
     13242     13240     13255     13256     13242     13240     13255     13257
     13242     13240     13255     13261     13243     13239     13240     13255
     13243     13239     13247     13248     13243     13239     13247     13249
     13243     13239     13247     13250     13243     13239     13251     13252
     13243     13239     13251     13253     13243     13239     13251     13254
     13244     13243     13239     13247     13244     13243     13239     13251
     13245     13243     13239     13247     13245     13243     13239     13251
     13246     13243     13239     13247     13246     13243     13239     13251
     13247     13239     13240     13255     13247     13239     13251     13252
     13247     13239     13251     13253     13247     13239     13251     13254
     13248     13247     13239     13251     13249     13247     13239     13251
     13250     13247     13239     13251     13251     13239     13240     13255
     13255     13261     13258     13259     13255     13261     13258     13260
     13255     13261     13258     13262     13256     13255     13261     13258
     13257     13255     13261     13258     13258     13262     13263     13264
     13258     13262     13263     13265     13258     13262     13263     13266
     13259     13258     13262     13263     13260     13258     13262     13263
     13261     13258     13262     13263     13262     13263     13266     13267
     13262     13263     13266     13268     13262     13263     13266     13274
     13263     13266     13268     13269     13263     13266     13274     13275
     13263     13266     13274     13276     13263     13266     13274     13277
     13264     13263     13266     13267     13264     13263     13266     13268
     13264     13263     13266     13274     13265     13263     13266     13267
     13265     13263     13266     13268     13265     13263     13266     13274
     13266     13268     13269     13270     13266     13268     13269     13271
     13266     13274     13277     13278     13267     13266     13268     13269
     13267     13266     13274     13275     13267     13266     13274     13276
     13267     13266     13274     13277     13268     13266     13274     13275
     13268     13266     13274     13276     13268     13266     13274     13277
     13268     13269     13271     13272     13268     13269     13271     13273
     13268     13269     13271     13283     13269     13268     13266     13274
     13269     13271     13283     13284     13269     13271     13283     13285
     13269     13271     13283     13286     13270     13269     13271     13272
     13270     13269     13271     13273     13270     13269     13271     13283
     13271     13283     13286     13287     13271     13283     13286     13288
     13271     13283     13286     13289     13272     13271     13283     13284
     13272     13271     13283     13285     13272     13271     13283     13286
     13273     13271     13283     13284     13273     13271     13283     13285
     13273     13271     13283     13286     13274     13277     13278     13279
     13274     13277     13278     13280     13275     13274     13277     13278
     13276     13274     13277     13278     13277     13278     13280     13281
     13277     13278     13280     13282     13277     13278     13280     13330
     13278     13280     13330     13331     13278     13280     13330     13332
     13278     13280     13330     13333     13279     13278     13280     13281
     13279     13278     13280     13282     13279     13278     13280     13330
     13280     13330     13333     13334     13280     13330     13333     13335
     13280     13330     13333     13336     13281     13280     13330     13331
     13281     13280     13330     13332     13281     13280     13330     13333
     13282     13280     13330     13331     13282     13280     13330     13332
     13282     13280     13330     13333     13283     13286     13289     13290
     13283     13286     13289     13291     13283     13286     13289     13292
     13284     13283     13286     13287     13284     13283     13286     13288
     13284     13283     13286     13289     13285     13283     13286     13287
     13285     13283     13286     13288     13285     13283     13286     13289
     13286     13289     13292     13293     13286     13289     13292     13294
     13286     13289     13292     13295     13287     13286     13289     13290
     13287     13286     13289     13291     13287     13286     13289     13292
     13288     13286     13289     13290     13288     13286     13289     13291
     13288     13286     13289     13292     13289     13292     13295     13296
     13289     13292     13295     13297     13289     13292     13295     13298
     13290     13289     13292     13293     13290     13289     13292     13294
     13290     13289     13292     13295     13291     13289     13292     13293
     13291     13289     13292     13294     13291     13289     13292     13295
     13292     13295     13298     13299     13292     13295     13298     13300
     13292     13295     13298     13301     13293     13292     13295     13296
     13293     13292     13295     13297     13293     13292     13295     13298
     13294     13292     13295     13296     13294     13292     13295     13297
     13294     13292     13295     13298     13295     13298     13301     13302
     13295     13298     13301     13303     13296     13295     13298     13299
     13296     13295     13298     13300     13296     13295     13298     13301
     13297     13295     13298     13299     13297     13295     13298     13300
     13297     13295     13298     13301     13298     13301     13303     13304
     13298     13301     13303     13305     13299     13298     13301     13302
     13299     13298     13301     13303     13300     13298     13301     13302
     13300     13298     13301     13303     13301     13303     13305     13306
     13301     13303     13305     13307     13301     13303     13305     13308
     13302     13301     13303     13304     13302     13301     13303     13305
     13303     13305     13308     13309     13303     13305     13308     13310
     13303     13305     13308     13311     13304     13303     13305     13306
     13304     13303     13305     13307     13304     13303     13305     13308
     13305     13308     13311     13312     13305     13308     13311     13313
     13305     13308     13311     13314     13306     13305     13308     13309
     13306     13305     13308     13310     13306     13305     13308     13311
     13307     13305     13308     13309     13307     13305     13308     13310
     13307     13305     13308     13311     13308     13311     13314     13315
     13308     13311     13314     13316     13308     13311     13314     13317
     13309     13308     13311     13312     13309     13308     13311     13313
     13309     13308     13311     13314     13310     13308     13311     13312
     13310     13308     13311     13313     13310     13308     13311     13314
     13311     13314     13317     13318     13311     13314     13317     13319
     13311     13314     13317     13320     13312     13311     13314     13315
     13312     13311     13314     13316     13312     13311     13314     13317
     13313     13311     13314     13315     13313     13311     13314     13316
     13313     13311     13314     13317     13314     13317     13320     13321
     13314     13317     13320     13322     13314     13317     13320     13323
     13315     13314     13317     13318     13315     13314     13317     13319
     13315     13314     13317     13320     13316     13314     13317     13318
     13316     13314     13317     13319     13316     13314     13317     13320
     13317     13320     13323     13324     13317     13320     13323     13325
     13317     13320     13323     13326     13318     13317     13320     13321
     13318     13317     13320     13322     13318     13317     13320     13323
     13319     13317     13320     13321     13319     13317     13320     13322
     13319     13317     13320     13323     13320     13323     13326     13327
     13320     13323     13326     13328     13320     13323     13326     13329
     13321     13320     13323     13324     13321     13320     13323     13325
     13321     13320     13323     13326     13322     13320     13323     13324
     13322     13320     13323     13325     13322     13320     13323     13326
     13324     13323     13326     13327     13324     13323     13326     13328
     13324     13323     13326     13329     13325     13323     13326     13327
     13325     13323     13326     13328     13325     13323     13326     13329
     13330     13333     13336     13337     13330     13333     13336     13338
     13330     13333     13336     13339     13331     13330     13333     13334
     13331     13330     13333     13335     13331     13330     13333     13336
     13332     13330     13333     13334     13332     13330     13333     13335
     13332     13330     13333     13336     13333     13336     13339     13340
     13333     13336     13339     13341     13333     13336     13339     13342
     13334     13333     13336     13337     13334     13333     13336     13338
     13334     13333     13336     13339     13335     13333     13336     13337
     13335     13333     13336     13338     13335     13333     13336     13339
     13336     13339     13342     13343     13336     13339     13342     13344
     13336     13339     13342     13345     13337     13336     13339     13340
     13337     13336     13339     13341     13337     13336     13339     13342
     13338     13336     13339     13340     13338     13336     13339     13341
     13338     13336     13339     13342     13339     13342     13345     13346
     13339     13342     13345     13347     13339     13342     13345     13348
     13340     13339     13342     13343     13340     13339     13342     13344
     13340     13339     13342     13345     13341     13339     13342     13343
     13341     13339     13342     13344     13341     13339     13342     13345
     13342     13345     13348     13349     13342     13345     13348     13350
     13342     13345     13348     13351     13343     13342     13345     13346
     13343     13342     13345     13347     13343     13342     13345     13348
     13344     13342     13345     13346     13344     13342     13345     13347
     13344     13342     13345     13348     13345     13348     13351     13352
     13345     13348     13351     13353     13345     13348     13351     13354
     13346     13345     13348     13349     13346     13345     13348     13350
     13346     13345     13348     13351     13347     13345     13348     13349
     13347     13345     13348     13350     13347     13345     13348     13351
     13348     13351     13354     13355     13348     13351     13354     13356
     13348     13351     13354     13357     13349     13348     13351     13352
     13349     13348     13351     13353     13349     13348     13351     13354
     13350     13348     13351     13352     13350     13348     13351     13353
     13350     13348     13351     13354     13351     13354     13357     13358
     13351     13354     13357     13359     13351     13354     13357     13360
     13352     13351     13354     13355     13352     13351     13354     13356
     13352     13351     13354     13357     13353     13351     13354     13355
     13353     13351     13354     13356     13353     13351     13354     13357
     13354     13357     13360     13361     13354     13357     13360     13362
     13354     13357     13360     13363     13355     13354     13357     13358
     13355     13354     13357     13359     13355     13354     13357     13360
     13356     13354     13357     13358     13356     13354     13357     13359
     13356     13354     13357     13360     13357     13360     13363     13364
     13357     13360     13363     13365     13357     13360     13363     13366
     13358     13357     13360     13361     13358     13357     13360     13362
     13358     13357     13360     13363     13359     13357     13360     13361
     13359     13357     13360     13362     13359     13357     13360     13363
     13360     13363     13366     13367     13360     13363     13366     13368
     13360     13363     13366     13369     13361     13360     13363     13364
     13361     13360     13363     13365     13361     13360     13363     13366
     13362     13360     13363     13364     13362     13360     13363     13365
     13362     13360     13363     13366     13363     13366     13369     13370
     13363     13366     13369     13371     13363     13366     13369     13372
     13364     13363     13366     13367     13364     13363     13366     13368
     13364     13363     13366     13369     13365     13363     13366     13367
     13365     13363     13366     13368     13365     13363     13366     13369
     13367     13366     13369     13370     13367     13366     13369     13371
     13367     13366     13369     13372     13368     13366     13369     13370
     13368     13366     13369     13371     13368     13366     13369     13372
     13373     13374     13389     13390     13373     13374     13389     13391
     13373     13374     13389     13395     13374     13373     13377     13378
     13374     13373     13377     13379     13374     13373     13377     13380
     13374     13373     13381     13382     13374     13373     13381     13383
     13374     13373     13381     13384     13374     13373     13385     13386
     13374     13373     13385     13387     13374     13373     13385     13388
     13374     13389     13395     13392     13375     13374     13373     13377
     13375     13374     13373     13381     13375     13374     13373     13385
     13375     13374     13389     13390     13375     13374     13389     13391
     13375     13374     13389     13395     13376     13374     13373     13377
     13376     13374     13373     13381     13376     13374     13373     13385
     13376     13374     13389     13390     13376     13374     13389     13391
     13376     13374     13389     13395     13377     13373     13374     13389
     13377     13373     13381     13382     13377     13373     13381     13383
     13377     13373     13381     13384     13377     13373     13385     13386
     13377     13373     13385     13387     13377     13373     13385     13388
     13378     13377     13373     13381     13378     13377     13373     13385
     13379     13377     13373     13381     13379     13377     13373     13385
     13380     13377     13373     13381     13380     13377     13373     13385
     13381     13373     13374     13389     13381     13373     13385     13386
     13381     13373     13385     13387     13381     13373     13385     13388
     13382     13381     13373     13385     13383     13381     13373     13385
     13384     13381     13373     13385     13385     13373     13374     13389
     13389     13395     13392     13393     13389     13395     13392     13394
     13389     13395     13392     13396     13390     13389     13395     13392
     13391     13389     13395     13392     13392     13396     13397     13398
     13392     13396     13397     13399     13392     13396     13397     13400
     13393     13392     13396     13397     13394     13392     13396     13397
     13395     13392     13396     13397     13396     13397     13400     13401
     13396     13397     13400     13402     13396     13397     13400     13408
     13397     13400     13402     13403     13397     13400     13408     13409
     13397     13400     13408     13410     13397     13400     13408     13411
     13398     13397     13400     13401     13398     13397     13400     13402
     13398     13397     13400     13408     13399     13397     13400     13401
     13399     13397     13400     13402     13399     13397     13400     13408
     13400     13402     13403     13404     13400     13402     13403     13405
     13400     13408     13411     13412     13401     13400     13402     13403
     13401     13400     13408     13409     13401     13400     13408     13410
     13401     13400     13408     13411     13402     13400     13408     13409
     13402     13400     13408     13410     13402     13400     13408     13411
     13402     13403     13405     13406     13402     13403     13405     13407
     13402     13403     13405     13417     13403     13402     13400     13408
     13403     13405     13417     13418     13403     13405     13417     13419
     13403     13405     13417     13420     13404     13403     13405     13406
     13404     13403     13405     13407     13404     13403     13405     13417
     13405     13417     13420     13421     13405     13417     13420     13422
     13405     13417     13420     13423     13406     13405     13417     13418
     13406     13405     13417     13419     13406     13405     13417     13420
     13407     13405     13417     13418     13407     13405     13417     13419
     13407     13405     13417     13420     13408     13411     13412     13413
     13408     13411     13412     13414     13409     13408     13411     13412
     13410     13408     13411     13412     13411     13412     13414     13415
     13411     13412     13414     13416     13411     13412     13414     13464
     13412     13414     13464     13465     13412     13414     13464     13466
     13412     13414     13464     13467     13413     13412     13414     13415
     13413     13412     13414     13416     13413     13412     13414     13464
     13414     13464     13467     13468     13414     13464     13467     13469
     13414     13464     13467     13470     13415     13414     13464     13465
     13415     13414     13464     13466     13415     13414     13464     13467
     13416     13414     13464     13465     13416     13414     13464     13466
     13416     13414     13464     13467     13417     13420     13423     13424
     13417     13420     13423     13425     13417     13420     13423     13426
     13418     13417     13420     13421     13418     13417     13420     13422
     13418     13417     13420     13423     13419     13417     13420     13421
     13419     13417     13420     13422     13419     13417     13420     13423
     13420     13423     13426     13427     13420     13423     13426     13428
     13420     13423     13426     13429     13421     13420     13423     13424
     13421     13420     13423     13425     13421     13420     13423     13426
     13422     13420     13423     13424     13422     13420     13423     13425
     13422     13420     13423     13426     13423     13426     13429     13430
     13423     13426     13429     13431     13423     13426     13429     13432
     13424     13423     13426     13427     13424     13423     13426     13428
     13424     13423     13426     13429     13425     13423     13426     13427
     13425     13423     13426     13428     13425     13423     13426     13429
     13426     13429     13432     13433     13426     13429     13432     13434
     13426     13429     13432     13435     13427     13426     13429     13430
     13427     13426     13429     13431     13427     13426     13429     13432
     13428     13426     13429     13430     13428     13426     13429     13431
     13428     13426     13429     13432     13429     13432     13435     13436
     13429     13432     13435     13437     13430     13429     13432     13433
     13430     13429     13432     13434     13430     13429     13432     13435
     13431     13429     13432     13433     13431     13429     13432     13434
     13431     13429     13432     13435     13432     13435     13437     13438
     13432     13435     13437     13439     13433     13432     13435     13436
     13433     13432     13435     13437     13434     13432     13435     13436
     13434     13432     13435     13437     13435     13437     13439     13440
     13435     13437     13439     13441     13435     13437     13439     13442
     13436     13435     13437     13438     13436     13435     13437     13439
     13437     13439     13442     13443     13437     13439     13442     13444
     13437     13439     13442     13445     13438     13437     13439     13440
     13438     13437     13439     13441     13438     13437     13439     13442
     13439     13442     13445     13446     13439     13442     13445     13447
     13439     13442     13445     13448     13440     13439     13442     13443
     13440     13439     13442     13444     13440     13439     13442     13445
     13441     13439     13442     13443     13441     13439     13442     13444
     13441     13439     13442     13445     13442     13445     13448     13449
     13442     13445     13448     13450     13442     13445     13448     13451
     13443     13442     13445     13446     13443     13442     13445     13447
     13443     13442     13445     13448     13444     13442     13445     13446
     13444     13442     13445     13447     13444     13442     13445     13448
     13445     13448     13451     13452     13445     13448     13451     13453
     13445     13448     13451     13454     13446     13445     13448     13449
     13446     13445     13448     13450     13446     13445     13448     13451
     13447     13445     13448     13449     13447     13445     13448     13450
     13447     13445     13448     13451     13448     13451     13454     13455
     13448     13451     13454     13456     13448     13451     13454     13457
     13449     13448     13451     13452     13449     13448     13451     13453
     13449     13448     13451     13454     13450     13448     13451     13452
     13450     13448     13451     13453     13450     13448     13451     13454
     13451     13454     13457     13458     13451     13454     13457     13459
     13451     13454     13457     13460     13452     13451     13454     13455
     13452     13451     13454     13456     13452     13451     13454     13457
     13453     13451     13454     13455     13453     13451     13454     13456
     13453     13451     13454     13457     13454     13457     13460     13461
     13454     13457     13460     13462     13454     13457     13460     13463
     13455     13454     13457     13458     13455     13454     13457     13459
     13455     13454     13457     13460     13456     13454     13457     13458
     13456     13454     13457     13459     13456     13454     13457     13460
     13458     13457     13460     13461     13458     13457     13460     13462
     13458     13457     13460     13463     13459     13457     13460     13461
     13459     13457     13460     13462     13459     13457     13460     13463
     13464     13467     13470     13471     13464     13467     13470     13472
     13464     13467     13470     13473     13465     13464     13467     13468
     13465     13464     13467     13469     13465     13464     13467     13470
     13466     13464     13467     13468     13466     13464     13467     13469
     13466     13464     13467     13470     13467     13470     13473     13474
     13467     13470     13473     13475     13467     13470     13473     13476
     13468     13467     13470     13471     13468     13467     13470     13472
     13468     13467     13470     13473     13469     13467     13470     13471
     13469     13467     13470     13472     13469     13467     13470     13473
     13470     13473     13476     13477     13470     13473     13476     13478
     13470     13473     13476     13479     13471     13470     13473     13474
     13471     13470     13473     13475     13471     13470     13473     13476
     13472     13470     13473     13474     13472     13470     13473     13475
     13472     13470     13473     13476     13473     13476     13479     13480
     13473     13476     13479     13481     13473     13476     13479     13482
     13474     13473     13476     13477     13474     13473     13476     13478
     13474     13473     13476     13479     13475     13473     13476     13477
     13475     13473     13476     13478     13475     13473     13476     13479
     13476     13479     13482     13483     13476     13479     13482     13484
     13476     13479     13482     13485     13477     13476     13479     13480
     13477     13476     13479     13481     13477     13476     13479     13482
     13478     13476     13479     13480     13478     13476     13479     13481
     13478     13476     13479     13482     13479     13482     13485     13486
     13479     13482     13485     13487     13479     13482     13485     13488
     13480     13479     13482     13483     13480     13479     13482     13484
     13480     13479     13482     13485     13481     13479     13482     13483
     13481     13479     13482     13484     13481     13479     13482     13485
     13482     13485     13488     13489     13482     13485     13488     13490
     13482     13485     13488     13491     13483     13482     13485     13486
     13483     13482     13485     13487     13483     13482     13485     13488
     13484     13482     13485     13486     13484     13482     13485     13487
     13484     13482     13485     13488     13485     13488     13491     13492
     13485     13488     13491     13493     13485     13488     13491     13494
     13486     13485     13488     13489     13486     13485     13488     13490
     13486     13485     13488     13491     13487     13485     13488     13489
     13487     13485     13488     13490     13487     13485     13488     13491
     13488     13491     13494     13495     13488     13491     13494     13496
     13488     13491     13494     13497     13489     13488     13491     13492
     13489     13488     13491     13493     13489     13488     13491     13494
     13490     13488     13491     13492     13490     13488     13491     13493
     13490     13488     13491     13494     13491     13494     13497     13498
     13491     13494     13497     13499     13491     13494     13497     13500
     13492     13491     13494     13495     13492     13491     13494     13496
     13492     13491     13494     13497     13493     13491     13494     13495
     13493     13491     13494     13496     13493     13491     13494     13497
     13494     13497     13500     13501     13494     13497     13500     13502
     13494     13497     13500     13503     13495     13494     13497     13498
     13495     13494     13497     13499     13495     13494     13497     13500
     13496     13494     13497     13498     13496     13494     13497     13499
     13496     13494     13497     13500     13497     13500     13503     13504
     13497     13500     13503     13505     13497     13500     13503     13506
     13498     13497     13500     13501     13498     13497     13500     13502
     13498     13497     13500     13503     13499     13497     13500     13501
     13499     13497     13500     13502     13499     13497     13500     13503
     13501     13500     13503     13504     13501     13500     13503     13505
     13501     13500     13503     13506     13502     13500     13503     13504
     13502     13500     13503     13505     13502     13500     13503     13506
     13507     13508     13523     13524     13507     13508     13523     13525
     13507     13508     13523     13529     13508     13507     13511     13512
     13508     13507     13511     13513     13508     13507     13511     13514
     13508     13507     13515     13516     13508     13507     13515     13517
     13508     13507     13515     13518     13508     13507     13519     13520
     13508     13507     13519     13521     13508     13507     13519     13522
     13508     13523     13529     13526     13509     13508     13507     13511
     13509     13508     13507     13515     13509     13508     13507     13519
     13509     13508     13523     13524     13509     13508     13523     13525
     13509     13508     13523     13529     13510     13508     13507     13511
     13510     13508     13507     13515     13510     13508     13507     13519
     13510     13508     13523     13524     13510     13508     13523     13525
     13510     13508     13523     13529     13511     13507     13508     13523
     13511     13507     13515     13516     13511     13507     13515     13517
     13511     13507     13515     13518     13511     13507     13519     13520
     13511     13507     13519     13521     13511     13507     13519     13522
     13512     13511     13507     13515     13512     13511     13507     13519
     13513     13511     13507     13515     13513     13511     13507     13519
     13514     13511     13507     13515     13514     13511     13507     13519
     13515     13507     13508     13523     13515     13507     13519     13520
     13515     13507     13519     13521     13515     13507     13519     13522
     13516     13515     13507     13519     13517     13515     13507     13519
     13518     13515     13507     13519     13519     13507     13508     13523
     13523     13529     13526     13527     13523     13529     13526     13528
     13523     13529     13526     13530     13524     13523     13529     13526
     13525     13523     13529     13526     13526     13530     13531     13532
     13526     13530     13531     13533     13526     13530     13531     13534
     13527     13526     13530     13531     13528     13526     13530     13531
     13529     13526     13530     13531     13530     13531     13534     13535
     13530     13531     13534     13536     13530     13531     13534     13542
     13531     13534     13536     13537     13531     13534     13542     13543
     13531     13534     13542     13544     13531     13534     13542     13545
     13532     13531     13534     13535     13532     13531     13534     13536
     13532     13531     13534     13542     13533     13531     13534     13535
     13533     13531     13534     13536     13533     13531     13534     13542
     13534     13536     13537     13538     13534     13536     13537     13539
     13534     13542     13545     13546     13535     13534     13536     13537
     13535     13534     13542     13543     13535     13534     13542     13544
     13535     13534     13542     13545     13536     13534     13542     13543
     13536     13534     13542     13544     13536     13534     13542     13545
     13536     13537     13539     13540     13536     13537     13539     13541
     13536     13537     13539     13551     13537     13536     13534     13542
     13537     13539     13551     13552     13537     13539     13551     13553
     13537     13539     13551     13554     13538     13537     13539     13540
     13538     13537     13539     13541     13538     13537     13539     13551
     13539     13551     13554     13555     13539     13551     13554     13556
     13539     13551     13554     13557     13540     13539     13551     13552
     13540     13539     13551     13553     13540     13539     13551     13554
     13541     13539     13551     13552     13541     13539     13551     13553
     13541     13539     13551     13554     13542     13545     13546     13547
     13542     13545     13546     13548     13543     13542     13545     13546
     13544     13542     13545     13546     13545     13546     13548     13549
     13545     13546     13548     13550     13545     13546     13548     13598
     13546     13548     13598     13599     13546     13548     13598     13600
     13546     13548     13598     13601     13547     13546     13548     13549
     13547     13546     13548     13550     13547     13546     13548     13598
     13548     13598     13601     13602     13548     13598     13601     13603
     13548     13598     13601     13604     13549     13548     13598     13599
     13549     13548     13598     13600     13549     13548     13598     13601
     13550     13548     13598     13599     13550     13548     13598     13600
     13550     13548     13598     13601     13551     13554     13557     13558
     13551     13554     13557     13559     13551     13554     13557     13560
     13552     13551     13554     13555     13552     13551     13554     13556
     13552     13551     13554     13557     13553     13551     13554     13555
     13553     13551     13554     13556     13553     13551     13554     13557
     13554     13557     13560     13561     13554     13557     13560     13562
     13554     13557     13560     13563     13555     13554     13557     13558
     13555     13554     13557     13559     13555     13554     13557     13560
     13556     13554     13557     13558     13556     13554     13557     13559
     13556     13554     13557     13560     13557     13560     13563     13564
     13557     13560     13563     13565     13557     13560     13563     13566
     13558     13557     13560     13561     13558     13557     13560     13562
     13558     13557     13560     13563     13559     13557     13560     13561
     13559     13557     13560     13562     13559     13557     13560     13563
     13560     13563     13566     13567     13560     13563     13566     13568
     13560     13563     13566     13569     13561     13560     13563     13564
     13561     13560     13563     13565     13561     13560     13563     13566
     13562     13560     13563     13564     13562     13560     13563     13565
     13562     13560     13563     13566     13563     13566     13569     13570
     13563     13566     13569     13571     13564     13563     13566     13567
     13564     13563     13566     13568     13564     13563     13566     13569
     13565     13563     13566     13567     13565     13563     13566     13568
     13565     13563     13566     13569     13566     13569     13571     13572
     13566     13569     13571     13573     13567     13566     13569     13570
     13567     13566     13569     13571     13568     13566     13569     13570
     13568     13566     13569     13571     13569     13571     13573     13574
     13569     13571     13573     13575     13569     13571     13573     13576
     13570     13569     13571     13572     13570     13569     13571     13573
     13571     13573     13576     13577     13571     13573     13576     13578
     13571     13573     13576     13579     13572     13571     13573     13574
     13572     13571     13573     13575     13572     13571     13573     13576
     13573     13576     13579     13580     13573     13576     13579     13581
     13573     13576     13579     13582     13574     13573     13576     13577
     13574     13573     13576     13578     13574     13573     13576     13579
     13575     13573     13576     13577     13575     13573     13576     13578
     13575     13573     13576     13579     13576     13579     13582     13583
     13576     13579     13582     13584     13576     13579     13582     13585
     13577     13576     13579     13580     13577     13576     13579     13581
     13577     13576     13579     13582     13578     13576     13579     13580
     13578     13576     13579     13581     13578     13576     13579     13582
     13579     13582     13585     13586     13579     13582     13585     13587
     13579     13582     13585     13588     13580     13579     13582     13583
     13580     13579     13582     13584     13580     13579     13582     13585
     13581     13579     13582     13583     13581     13579     13582     13584
     13581     13579     13582     13585     13582     13585     13588     13589
     13582     13585     13588     13590     13582     13585     13588     13591
     13583     13582     13585     13586     13583     13582     13585     13587
     13583     13582     13585     13588     13584     13582     13585     13586
     13584     13582     13585     13587     13584     13582     13585     13588
     13585     13588     13591     13592     13585     13588     13591     13593
     13585     13588     13591     13594     13586     13585     13588     13589
     13586     13585     13588     13590     13586     13585     13588     13591
     13587     13585     13588     13589     13587     13585     13588     13590
     13587     13585     13588     13591     13588     13591     13594     13595
     13588     13591     13594     13596     13588     13591     13594     13597
     13589     13588     13591     13592     13589     13588     13591     13593
     13589     13588     13591     13594     13590     13588     13591     13592
     13590     13588     13591     13593     13590     13588     13591     13594
     13592     13591     13594     13595     13592     13591     13594     13596
     13592     13591     13594     13597     13593     13591     13594     13595
     13593     13591     13594     13596     13593     13591     13594     13597
     13598     13601     13604     13605     13598     13601     13604     13606
     13598     13601     13604     13607     13599     13598     13601     13602
     13599     13598     13601     13603     13599     13598     13601     13604
     13600     13598     13601     13602     13600     13598     13601     13603
     13600     13598     13601     13604     13601     13604     13607     13608
     13601     13604     13607     13609     13601     13604     13607     13610
     13602     13601     13604     13605     13602     13601     13604     13606
     13602     13601     13604     13607     13603     13601     13604     13605
     13603     13601     13604     13606     13603     13601     13604     13607
     13604     13607     13610     13611     13604     13607     13610     13612
     13604     13607     13610     13613     13605     13604     13607     13608
     13605     13604     13607     13609     13605     13604     13607     13610
     13606     13604     13607     13608     13606     13604     13607     13609
     13606     13604     13607     13610     13607     13610     13613     13614
     13607     13610     13613     13615     13607     13610     13613     13616
     13608     13607     13610     13611     13608     13607     13610     13612
     13608     13607     13610     13613     13609     13607     13610     13611
     13609     13607     13610     13612     13609     13607     13610     13613
     13610     13613     13616     13617     13610     13613     13616     13618
     13610     13613     13616     13619     13611     13610     13613     13614
     13611     13610     13613     13615     13611     13610     13613     13616
     13612     13610     13613     13614     13612     13610     13613     13615
     13612     13610     13613     13616     13613     13616     13619     13620
     13613     13616     13619     13621     13613     13616     13619     13622
     13614     13613     13616     13617     13614     13613     13616     13618
     13614     13613     13616     13619     13615     13613     13616     13617
     13615     13613     13616     13618     13615     13613     13616     13619
     13616     13619     13622     13623     13616     13619     13622     13624
     13616     13619     13622     13625     13617     13616     13619     13620
     13617     13616     13619     13621     13617     13616     13619     13622
     13618     13616     13619     13620     13618     13616     13619     13621
     13618     13616     13619     13622     13619     13622     13625     13626
     13619     13622     13625     13627     13619     13622     13625     13628
     13620     13619     13622     13623     13620     13619     13622     13624
     13620     13619     13622     13625     13621     13619     13622     13623
     13621     13619     13622     13624     13621     13619     13622     13625
     13622     13625     13628     13629     13622     13625     13628     13630
     13622     13625     13628     13631     13623     13622     13625     13626
     13623     13622     13625     13627     13623     13622     13625     13628
     13624     13622     13625     13626     13624     13622     13625     13627
     13624     13622     13625     13628     13625     13628     13631     13632
     13625     13628     13631     13633     13625     13628     13631     13634
     13626     13625     13628     13629     13626     13625     13628     13630
     13626     13625     13628     13631     13627     13625     13628     13629
     13627     13625     13628     13630     13627     13625     13628     13631
     13628     13631     13634     13635     13628     13631     13634     13636
     13628     13631     13634     13637     13629     13628     13631     13632
     13629     13628     13631     13633     13629     13628     13631     13634
     13630     13628     13631     13632     13630     13628     13631     13633
     13630     13628     13631     13634     13631     13634     13637     13638
     13631     13634     13637     13639     13631     13634     13637     13640
     13632     13631     13634     13635     13632     13631     13634     13636
     13632     13631     13634     13637     13633     13631     13634     13635
     13633     13631     13634     13636     13633     13631     13634     13637
     13635     13634     13637     13638     13635     13634     13637     13639
     13635     13634     13637     13640     13636     13634     13637     13638
     13636     13634     13637     13639     13636     13634     13637     13640
     13641     13645     13647     13648     13641     13645     13647     13649
     13641     13645     13650     13651     13641     13645     13650     13652
     13641     13645     13650     13656     13642     13641     13645     13646
     13642     13641     13645     13647     13642     13641     13645     13650
     13643     13641     13645     13646     13643     13641     13645     13647
     13643     13641     13645     13650     13644     13641     13645     13646
     13644     13641     13645     13647     13644     13641     13645     13650
     13645     13650     13656     13653     13646     13645     13647     13648
     13646     13645     13647     13649     13646     13645     13650     13651
     13646     13645     13650     13652     13646     13645     13650     13656
     13647     13645     13650     13651     13647     13645     13650     13652
     13647     13645     13650     13656     13648     13647     13645     13650
     13649     13647     13645     13650     13650     13656     13653     13654
     13650     13656     13653     13655     13650     13656     13653     13657
     13651     13650     13656     13653     13652     13650     13656     13653
     13653     13657     13658     13659     13653     13657     13658     13660
     13653     13657     13658     13661     13654     13653     13657     13658
     13655     13653     13657     13658     13656     13653     13657     13658
     13657     13658     13661     13662     13657     13658     13661     13663
     13657     13658     13661     13669     13658     13661     13663     13664
     13658     13661     13669     13670     13658     13661     13669     13671
     13658     13661     13669     13672     13659     13658     13661     13662
     13659     13658     13661     13663     13659     13658     13661     13669
     13660     13658     13661     13662     13660     13658     13661     13663
     13660     13658     13661     13669     13661     13663     13664     13665
     13661     13663     13664     13666     13661     13669     13672     13673
     13662     13661     13663     13664     13662     13661     13669     13670
     13662     13661     13669     13671     13662     13661     13669     13672
     13663     13661     13669     13670     13663     13661     13669     13671
     13663     13661     13669     13672     13663     13664     13666     13667
     13663     13664     13666     13668     13663     13664     13666     13678
     13664     13663     13661     13669     13664     13666     13678     13679
     13664     13666     13678     13680     13664     13666     13678     13681
     13665     13664     13666     13667     13665     13664     13666     13668
     13665     13664     13666     13678     13666     13678     13681     13682
     13666     13678     13681     13683     13666     13678     13681     13684
     13667     13666     13678     13679     13667     13666     13678     13680
     13667     13666     13678     13681     13668     13666     13678     13679
     13668     13666     13678     13680     13668     13666     13678     13681
     13669     13672     13673     13674     13669     13672     13673     13675
     13670     13669     13672     13673     13671     13669     13672     13673
     13672     13673     13675     13676     13672     13673     13675     13677
     13672     13673     13675     13725     13673     13675     13725     13726
     13673     13675     13725     13727     13673     13675     13725     13728
     13674     13673     13675     13676     13674     13673     13675     13677
     13674     13673     13675     13725     13675     13725     13728     13729
     13675     13725     13728     13730     13675     13725     13728     13731
     13676     13675     13725     13726     13676     13675     13725     13727
     13676     13675     13725     13728     13677     13675     13725     13726
     13677     13675     13725     13727     13677     13675     13725     13728
     13678     13681     13684     13685     13678     13681     13684     13686
     13678     13681     13684     13687     13679     13678     13681     13682
     13679     13678     13681     13683     13679     13678     13681     13684
     13680     13678     13681     13682     13680     13678     13681     13683
     13680     13678     13681     13684     13681     13684     13687     13688
     13681     13684     13687     13689     13681     13684     13687     13690
     13682     13681     13684     13685     13682     13681     13684     13686
     13682     13681     13684     13687     13683     13681     13684     13685
     13683     13681     13684     13686     13683     13681     13684     13687
     13684     13687     13690     13691     13684     13687     13690     13692
     13684     13687     13690     13693     13685     13684     13687     13688
     13685     13684     13687     13689     13685     13684     13687     13690
     13686     13684     13687     13688     13686     13684     13687     13689
     13686     13684     13687     13690     13687     13690     13693     13694
     13687     13690     13693     13695     13687     13690     13693     13696
     13688     13687     13690     13691     13688     13687     13690     13692
     13688     13687     13690     13693     13689     13687     13690     13691
     13689     13687     13690     13692     13689     13687     13690     13693
     13690     13693     13696     13697     13690     13693     13696     13698
     13691     13690     13693     13694     13691     13690     13693     13695
     13691     13690     13693     13696     13692     13690     13693     13694
     13692     13690     13693     13695     13692     13690     13693     13696
     13693     13696     13698     13699     13693     13696     13698     13700
     13694     13693     13696     13697     13694     13693     13696     13698
     13695     13693     13696     13697     13695     13693     13696     13698
     13696     13698     13700     13701     13696     13698     13700     13702
     13696     13698     13700     13703     13697     13696     13698     13699
     13697     13696     13698     13700     13698     13700     13703     13704
     13698     13700     13703     13705     13698     13700     13703     13706
     13699     13698     13700     13701     13699     13698     13700     13702
     13699     13698     13700     13703     13700     13703     13706     13707
     13700     13703     13706     13708     13700     13703     13706     13709
     13701     13700     13703     13704     13701     13700     13703     13705
     13701     13700     13703     13706     13702     13700     13703     13704
     13702     13700     13703     13705     13702     13700     13703     13706
     13703     13706     13709     13710     13703     13706     13709     13711
     13703     13706     13709     13712     13704     13703     13706     13707
     13704     13703     13706     13708     13704     13703     13706     13709
     13705     13703     13706     13707     13705     13703     13706     13708
     13705     13703     13706     13709     13706     13709     13712     13713
     13706     13709     13712     13714     13706     13709     13712     13715
     13707     13706     13709     13710     13707     13706     13709     13711
     13707     13706     13709     13712     13708     13706     13709     13710
     13708     13706     13709     13711     13708     13706     13709     13712
     13709     13712     13715     13716     13709     13712     13715     13717
     13709     13712     13715     13718     13710     13709     13712     13713
     13710     13709     13712     13714     13710     13709     13712     13715
     13711     13709     13712     13713     13711     13709     13712     13714
     13711     13709     13712     13715     13712     13715     13718     13719
     13712     13715     13718     13720     13712     13715     13718     13721
     13713     13712     13715     13716     13713     13712     13715     13717
     13713     13712     13715     13718     13714     13712     13715     13716
     13714     13712     13715     13717     13714     13712     13715     13718
     13715     13718     13721     13722     13715     13718     13721     13723
     13715     13718     13721     13724     13716     13715     13718     13719
     13716     13715     13718     13720     13716     13715     13718     13721
     13717     13715     13718     13719     13717     13715     13718     13720
     13717     13715     13718     13721     13719     13718     13721     13722
     13719     13718     13721     13723     13719     13718     13721     13724
     13720     13718     13721     13722     13720     13718     13721     13723
     13720     13718     13721     13724     13725     13728     13731     13732
     13725     13728     13731     13733     13725     13728     13731     13734
     13726     13725     13728     13729     13726     13725     13728     13730
     13726     13725     13728     13731     13727     13725     13728     13729
     13727     13725     13728     13730     13727     13725     13728     13731
     13728     13731     13734     13735     13728     13731     13734     13736
     13728     13731     13734     13737     13729     13728     13731     13732
     13729     13728     13731     13733     13729     13728     13731     13734
     13730     13728     13731     13732     13730     13728     13731     13733
     13730     13728     13731     13734     13731     13734     13737     13738
     13731     13734     13737     13739     13731     13734     13737     13740
     13732     13731     13734     13735     13732     13731     13734     13736
     13732     13731     13734     13737     13733     13731     13734     13735
     13733     13731     13734     13736     13733     13731     13734     13737
     13734     13737     13740     13741     13734     13737     13740     13742
     13734     13737     13740     13743     13735     13734     13737     13738
     13735     13734     13737     13739     13735     13734     13737     13740
     13736     13734     13737     13738     13736     13734     13737     13739
     13736     13734     13737     13740     13737     13740     13743     13744
     13737     13740     13743     13745     13737     13740     13743     13746
     13738     13737     13740     13741     13738     13737     13740     13742
     13738     13737     13740     13743     13739     13737     13740     13741
     13739     13737     13740     13742     13739     13737     13740     13743
     13740     13743     13746     13747     13740     13743     13746     13748
     13740     13743     13746     13749     13741     13740     13743     13744
     13741     13740     13743     13745     13741     13740     13743     13746
     13742     13740     13743     13744     13742     13740     13743     13745
     13742     13740     13743     13746     13743     13746     13749     13750
     13743     13746     13749     13751     13743     13746     13749     13752
     13744     13743     13746     13747     13744     13743     13746     13748
     13744     13743     13746     13749     13745     13743     13746     13747
     13745     13743     13746     13748     13745     13743     13746     13749
     13746     13749     13752     13753     13746     13749     13752     13754
     13746     13749     13752     13755     13747     13746     13749     13750
     13747     13746     13749     13751     13747     13746     13749     13752
     13748     13746     13749     13750     13748     13746     13749     13751
     13748     13746     13749     13752     13749     13752     13755     13756
     13749     13752     13755     13757     13749     13752     13755     13758
     13750     13749     13752     13753     13750     13749     13752     13754
     13750     13749     13752     13755     13751     13749     13752     13753
     13751     13749     13752     13754     13751     13749     13752     13755
     13752     13755     13758     13759     13752     13755     13758     13760
     13752     13755     13758     13761     13753     13752     13755     13756
     13753     13752     13755     13757     13753     13752     13755     13758
     13754     13752     13755     13756     13754     13752     13755     13757
     13754     13752     13755     13758     13755     13758     13761     13762
     13755     13758     13761     13763     13755     13758     13761     13764
     13756     13755     13758     13759     13756     13755     13758     13760
     13756     13755     13758     13761     13757     13755     13758     13759
     13757     13755     13758     13760     13757     13755     13758     13761
     13758     13761     13764     13765     13758     13761     13764     13766
     13758     13761     13764     13767     13759     13758     13761     13762
     13759     13758     13761     13763     13759     13758     13761     13764
     13760     13758     13761     13762     13760     13758     13761     13763
     13760     13758     13761     13764     13762     13761     13764     13765
     13762     13761     13764     13766     13762     13761     13764     13767
     13763     13761     13764     13765     13763     13761     13764     13766
     13763     13761     13764     13767     13768     13769     13784     13785
     13768     13769     13784     13786     13768     13769     13784     13790
     13769     13768     13772     13773     13769     13768     13772     13774
     13769     13768     13772     13775     13769     13768     13776     13777
     13769     13768     13776     13778     13769     13768     13776     13779
     13769     13768     13780     13781     13769     13768     13780     13782
     13769     13768     13780     13783     13769     13784     13790     13787
     13770     13769     13768     13772     13770     13769     13768     13776
     13770     13769     13768     13780     13770     13769     13784     13785
     13770     13769     13784     13786     13770     13769     13784     13790
     13771     13769     13768     13772     13771     13769     13768     13776
     13771     13769     13768     13780     13771     13769     13784     13785
     13771     13769     13784     13786     13771     13769     13784     13790
     13772     13768     13769     13784     13772     13768     13776     13777
     13772     13768     13776     13778     13772     13768     13776     13779
     13772     13768     13780     13781     13772     13768     13780     13782
     13772     13768     13780     13783     13773     13772     13768     13776
     13773     13772     13768     13780     13774     13772     13768     13776
     13774     13772     13768     13780     13775     13772     13768     13776
     13775     13772     13768     13780     13776     13768     13769     13784
     13776     13768     13780     13781     13776     13768     13780     13782
     13776     13768     13780     13783     13777     13776     13768     13780
     13778     13776     13768     13780     13779     13776     13768     13780
     13780     13768     13769     13784     13784     13790     13787     13788
     13784     13790     13787     13789     13784     13790     13787     13791
     13785     13784     13790     13787     13786     13784     13790     13787
     13787     13791     13792     13793     13787     13791     13792     13794
     13787     13791     13792     13795     13788     13787     13791     13792
     13789     13787     13791     13792     13790     13787     13791     13792
     13791     13792     13795     13796     13791     13792     13795     13797
     13791     13792     13795     13803     13792     13795     13797     13798
     13792     13795     13803     13804     13792     13795     13803     13805
     13792     13795     13803     13806     13793     13792     13795     13796
     13793     13792     13795     13797     13793     13792     13795     13803
     13794     13792     13795     13796     13794     13792     13795     13797
     13794     13792     13795     13803     13795     13797     13798     13799
     13795     13797     13798     13800     13795     13803     13806     13807
     13796     13795     13797     13798     13796     13795     13803     13804
     13796     13795     13803     13805     13796     13795     13803     13806
     13797     13795     13803     13804     13797     13795     13803     13805
     13797     13795     13803     13806     13797     13798     13800     13801
     13797     13798     13800     13802     13797     13798     13800     13812
     13798     13797     13795     13803     13798     13800     13812     13813
     13798     13800     13812     13814     13798     13800     13812     13815
     13799     13798     13800     13801     13799     13798     13800     13802
     13799     13798     13800     13812     13800     13812     13815     13816
     13800     13812     13815     13817     13800     13812     13815     13818
     13801     13800     13812     13813     13801     13800     13812     13814
     13801     13800     13812     13815     13802     13800     13812     13813
     13802     13800     13812     13814     13802     13800     13812     13815
     13803     13806     13807     13808     13803     13806     13807     13809
     13804     13803     13806     13807     13805     13803     13806     13807
     13806     13807     13809     13810     13806     13807     13809     13811
     13806     13807     13809     13859     13807     13809     13859     13860
     13807     13809     13859     13861     13807     13809     13859     13862
     13808     13807     13809     13810     13808     13807     13809     13811
     13808     13807     13809     13859     13809     13859     13862     13863
     13809     13859     13862     13864     13809     13859     13862     13865
     13810     13809     13859     13860     13810     13809     13859     13861
     13810     13809     13859     13862     13811     13809     13859     13860
     13811     13809     13859     13861     13811     13809     13859     13862
     13812     13815     13818     13819     13812     13815     13818     13820
     13812     13815     13818     13821     13813     13812     13815     13816
     13813     13812     13815     13817     13813     13812     13815     13818
     13814     13812     13815     13816     13814     13812     13815     13817
     13814     13812     13815     13818     13815     13818     13821     13822
     13815     13818     13821     13823     13815     13818     13821     13824
     13816     13815     13818     13819     13816     13815     13818     13820
     13816     13815     13818     13821     13817     13815     13818     13819
     13817     13815     13818     13820     13817     13815     13818     13821
     13818     13821     13824     13825     13818     13821     13824     13826
     13818     13821     13824     13827     13819     13818     13821     13822
     13819     13818     13821     13823     13819     13818     13821     13824
     13820     13818     13821     13822     13820     13818     13821     13823
     13820     13818     13821     13824     13821     13824     13827     13828
     13821     13824     13827     13829     13821     13824     13827     13830
     13822     13821     13824     13825     13822     13821     13824     13826
     13822     13821     13824     13827     13823     13821     13824     13825
     13823     13821     13824     13826     13823     13821     13824     13827
     13824     13827     13830     13831     13824     13827     13830     13832
     13825     13824     13827     13828     13825     13824     13827     13829
     13825     13824     13827     13830     13826     13824     13827     13828
     13826     13824     13827     13829     13826     13824     13827     13830
     13827     13830     13832     13833     13827     13830     13832     13834
     13828     13827     13830     13831     13828     13827     13830     13832
     13829     13827     13830     13831     13829     13827     13830     13832
     13830     13832     13834     13835     13830     13832     13834     13836
     13830     13832     13834     13837     13831     13830     13832     13833
     13831     13830     13832     13834     13832     13834     13837     13838
     13832     13834     13837     13839     13832     13834     13837     13840
     13833     13832     13834     13835     13833     13832     13834     13836
     13833     13832     13834     13837     13834     13837     13840     13841
     13834     13837     13840     13842     13834     13837     13840     13843
     13835     13834     13837     13838     13835     13834     13837     13839
     13835     13834     13837     13840     13836     13834     13837     13838
     13836     13834     13837     13839     13836     13834     13837     13840
     13837     13840     13843     13844     13837     13840     13843     13845
     13837     13840     13843     13846     13838     13837     13840     13841
     13838     13837     13840     13842     13838     13837     13840     13843
     13839     13837     13840     13841     13839     13837     13840     13842
     13839     13837     13840     13843     13840     13843     13846     13847
     13840     13843     13846     13848     13840     13843     13846     13849
     13841     13840     13843     13844     13841     13840     13843     13845
     13841     13840     13843     13846     13842     13840     13843     13844
     13842     13840     13843     13845     13842     13840     13843     13846
     13843     13846     13849     13850     13843     13846     13849     13851
     13843     13846     13849     13852     13844     13843     13846     13847
     13844     13843     13846     13848     13844     13843     13846     13849
     13845     13843     13846     13847     13845     13843     13846     13848
     13845     13843     13846     13849     13846     13849     13852     13853
     13846     13849     13852     13854     13846     13849     13852     13855
     13847     13846     13849     13850     13847     13846     13849     13851
     13847     13846     13849     13852     13848     13846     13849     13850
     13848     13846     13849     13851     13848     13846     13849     13852
     13849     13852     13855     13856     13849     13852     13855     13857
     13849     13852     13855     13858     13850     13849     13852     13853
     13850     13849     13852     13854     13850     13849     13852     13855
     13851     13849     13852     13853     13851     13849     13852     13854
     13851     13849     13852     13855     13853     13852     13855     13856
     13853     13852     13855     13857     13853     13852     13855     13858
     13854     13852     13855     13856     13854     13852     13855     13857
     13854     13852     13855     13858     13859     13862     13865     13866
     13859     13862     13865     13867     13859     13862     13865     13868
     13860     13859     13862     13863     13860     13859     13862     13864
     13860     13859     13862     13865     13861     13859     13862     13863
     13861     13859     13862     13864     13861     13859     13862     13865
     13862     13865     13868     13869     13862     13865     13868     13870
     13862     13865     13868     13871     13863     13862     13865     13866
     13863     13862     13865     13867     13863     13862     13865     13868
     13864     13862     13865     13866     13864     13862     13865     13867
     13864     13862     13865     13868     13865     13868     13871     13872
     13865     13868     13871     13873     13865     13868     13871     13874
     13866     13865     13868     13869     13866     13865     13868     13870
     13866     13865     13868     13871     13867     13865     13868     13869
     13867     13865     13868     13870     13867     13865     13868     13871
     13868     13871     13874     13875     13868     13871     13874     13876
     13868     13871     13874     13877     13869     13868     13871     13872
     13869     13868     13871     13873     13869     13868     13871     13874
     13870     13868     13871     13872     13870     13868     13871     13873
     13870     13868     13871     13874     13871     13874     13877     13878
     13871     13874     13877     13879     13871     13874     13877     13880
     13872     13871     13874     13875     13872     13871     13874     13876
     13872     13871     13874     13877     13873     13871     13874     13875
     13873     13871     13874     13876     13873     13871     13874     13877
     13874     13877     13880     13881     13874     13877     13880     13882
     13874     13877     13880     13883     13875     13874     13877     13878
     13875     13874     13877     13879     13875     13874     13877     13880
     13876     13874     13877     13878     13876     13874     13877     13879
     13876     13874     13877     13880     13877     13880     13883     13884
     13877     13880     13883     13885     13877     13880     13883     13886
     13878     13877     13880     13881     13878     13877     13880     13882
     13878     13877     13880     13883     13879     13877     13880     13881
     13879     13877     13880     13882     13879     13877     13880     13883
     13880     13883     13886     13887     13880     13883     13886     13888
     13880     13883     13886     13889     13881     13880     13883     13884
     13881     13880     13883     13885     13881     13880     13883     13886
     13882     13880     13883     13884     13882     13880     13883     13885
     13882     13880     13883     13886     13883     13886     13889     13890
     13883     13886     13889     13891     13883     13886     13889     13892
     13884     13883     13886     13887     13884     13883     13886     13888
     13884     13883     13886     13889     13885     13883     13886     13887
     13885     13883     13886     13888     13885     13883     13886     13889
     13886     13889     13892     13893     13886     13889     13892     13894
     13886     13889     13892     13895     13887     13886     13889     13890
     13887     13886     13889     13891     13887     13886     13889     13892
     13888     13886     13889     13890     13888     13886     13889     13891
     13888     13886     13889     13892     13889     13892     13895     13896
     13889     13892     13895     13897     13889     13892     13895     13898
     13890     13889     13892     13893     13890     13889     13892     13894
     13890     13889     13892     13895     13891     13889     13892     13893
     13891     13889     13892     13894     13891     13889     13892     13895
     13892     13895     13898     13899     13892     13895     13898     13900
     13892     13895     13898     13901     13893     13892     13895     13896
     13893     13892     13895     13897     13893     13892     13895     13898
     13894     13892     13895     13896     13894     13892     13895     13897
     13894     13892     13895     13898     13896     13895     13898     13899
     13896     13895     13898     13900     13896     13895     13898     13901
     13897     13895     13898     13899     13897     13895     13898     13900
     13897     13895     13898     13901     13902     13906     13908     13909
     13902     13906     13908     13910     13902     13906     13911     13912
     13902     13906     13911     13913     13902     13906     13911     13917
     13903     13902     13906     13907     13903     13902     13906     13908
     13903     13902     13906     13911     13904     13902     13906     13907
     13904     13902     13906     13908     13904     13902     13906     13911
     13905     13902     13906     13907     13905     13902     13906     13908
     13905     13902     13906     13911     13906     13911     13917     13914
     13907     13906     13908     13909     13907     13906     13908     13910
     13907     13906     13911     13912     13907     13906     13911     13913
     13907     13906     13911     13917     13908     13906     13911     13912
     13908     13906     13911     13913     13908     13906     13911     13917
     13909     13908     13906     13911     13910     13908     13906     13911
     13911     13917     13914     13915     13911     13917     13914     13916
     13911     13917     13914     13918     13912     13911     13917     13914
     13913     13911     13917     13914     13914     13918     13919     13920
     13914     13918     13919     13921     13914     13918     13919     13922
     13915     13914     13918     13919     13916     13914     13918     13919
     13917     13914     13918     13919     13918     13919     13922     13923
     13918     13919     13922     13924     13918     13919     13922     13930
     13919     13922     13924     13925     13919     13922     13930     13931
     13919     13922     13930     13932     13919     13922     13930     13933
     13920     13919     13922     13923     13920     13919     13922     13924
     13920     13919     13922     13930     13921     13919     13922     13923
     13921     13919     13922     13924     13921     13919     13922     13930
     13922     13924     13925     13926     13922     13924     13925     13927
     13922     13930     13933     13934     13923     13922     13924     13925
     13923     13922     13930     13931     13923     13922     13930     13932
     13923     13922     13930     13933     13924     13922     13930     13931
     13924     13922     13930     13932     13924     13922     13930     13933
     13924     13925     13927     13928     13924     13925     13927     13929
     13924     13925     13927     13939     13925     13924     13922     13930
     13925     13927     13939     13940     13925     13927     13939     13941
     13925     13927     13939     13942     13926     13925     13927     13928
     13926     13925     13927     13929     13926     13925     13927     13939
     13927     13939     13942     13943     13927     13939     13942     13944
     13927     13939     13942     13945     13928     13927     13939     13940
     13928     13927     13939     13941     13928     13927     13939     13942
     13929     13927     13939     13940     13929     13927     13939     13941
     13929     13927     13939     13942     13930     13933     13934     13935
     13930     13933     13934     13936     13931     13930     13933     13934
     13932     13930     13933     13934     13933     13934     13936     13937
     13933     13934     13936     13938     13933     13934     13936     13986
     13934     13936     13986     13987     13934     13936     13986     13988
     13934     13936     13986     13989     13935     13934     13936     13937
     13935     13934     13936     13938     13935     13934     13936     13986
     13936     13986     13989     13990     13936     13986     13989     13991
     13936     13986     13989     13992     13937     13936     13986     13987
     13937     13936     13986     13988     13937     13936     13986     13989
     13938     13936     13986     13987     13938     13936     13986     13988
     13938     13936     13986     13989     13939     13942     13945     13946
     13939     13942     13945     13947     13939     13942     13945     13948
     13940     13939     13942     13943     13940     13939     13942     13944
     13940     13939     13942     13945     13941     13939     13942     13943
     13941     13939     13942     13944     13941     13939     13942     13945
     13942     13945     13948     13949     13942     13945     13948     13950
     13942     13945     13948     13951     13943     13942     13945     13946
     13943     13942     13945     13947     13943     13942     13945     13948
     13944     13942     13945     13946     13944     13942     13945     13947
     13944     13942     13945     13948     13945     13948     13951     13952
     13945     13948     13951     13953     13945     13948     13951     13954
     13946     13945     13948     13949     13946     13945     13948     13950
     13946     13945     13948     13951     13947     13945     13948     13949
     13947     13945     13948     13950     13947     13945     13948     13951
     13948     13951     13954     13955     13948     13951     13954     13956
     13948     13951     13954     13957     13949     13948     13951     13952
     13949     13948     13951     13953     13949     13948     13951     13954
     13950     13948     13951     13952     13950     13948     13951     13953
     13950     13948     13951     13954     13951     13954     13957     13958
     13951     13954     13957     13959     13952     13951     13954     13955
     13952     13951     13954     13956     13952     13951     13954     13957
     13953     13951     13954     13955     13953     13951     13954     13956
     13953     13951     13954     13957     13954     13957     13959     13960
     13954     13957     13959     13961     13955     13954     13957     13958
     13955     13954     13957     13959     13956     13954     13957     13958
     13956     13954     13957     13959     13957     13959     13961     13962
     13957     13959     13961     13963     13957     13959     13961     13964
     13958     13957     13959     13960     13958     13957     13959     13961
     13959     13961     13964     13965     13959     13961     13964     13966
     13959     13961     13964     13967     13960     13959     13961     13962
     13960     13959     13961     13963     13960     13959     13961     13964
     13961     13964     13967     13968     13961     13964     13967     13969
     13961     13964     13967     13970     13962     13961     13964     13965
     13962     13961     13964     13966     13962     13961     13964     13967
     13963     13961     13964     13965     13963     13961     13964     13966
     13963     13961     13964     13967     13964     13967     13970     13971
     13964     13967     13970     13972     13964     13967     13970     13973
     13965     13964     13967     13968     13965     13964     13967     13969
     13965     13964     13967     13970     13966     13964     13967     13968
     13966     13964     13967     13969     13966     13964     13967     13970
     13967     13970     13973     13974     13967     13970     13973     13975
     13967     13970     13973     13976     13968     13967     13970     13971
     13968     13967     13970     13972     13968     13967     13970     13973
     13969     13967     13970     13971     13969     13967     13970     13972
     13969     13967     13970     13973     13970     13973     13976     13977
     13970     13973     13976     13978     13970     13973     13976     13979
     13971     13970     13973     13974     13971     13970     13973     13975
     13971     13970     13973     13976     13972     13970     13973     13974
     13972     13970     13973     13975     13972     13970     13973     13976
     13973     13976     13979     13980     13973     13976     13979     13981
     13973     13976     13979     13982     13974     13973     13976     13977
     13974     13973     13976     13978     13974     13973     13976     13979
     13975     13973     13976     13977     13975     13973     13976     13978
     13975     13973     13976     13979     13976     13979     13982     13983
     13976     13979     13982     13984     13976     13979     13982     13985
     13977     13976     13979     13980     13977     13976     13979     13981
     13977     13976     13979     13982     13978     13976     13979     13980
     13978     13976     13979     13981     13978     13976     13979     13982
     13980     13979     13982     13983     13980     13979     13982     13984
     13980     13979     13982     13985     13981     13979     13982     13983
     13981     13979     13982     13984     13981     13979     13982     13985
     13986     13989     13992     13993     13986     13989     13992     13994
     13986     13989     13992     13995     13987     13986     13989     13990
     13987     13986     13989     13991     13987     13986     13989     13992
     13988     13986     13989     13990     13988     13986     13989     13991
     13988     13986     13989     13992     13989     13992     13995     13996
     13989     13992     13995     13997     13989     13992     13995     13998
     13990     13989     13992     13993     13990     13989     13992     13994
     13990     13989     13992     13995     13991     13989     13992     13993
     13991     13989     13992     13994     13991     13989     13992     13995
     13992     13995     13998     13999     13992     13995     13998     14000
     13992     13995     13998     14001     13993     13992     13995     13996
     13993     13992     13995     13997     13993     13992     13995     13998
     13994     13992     13995     13996     13994     13992     13995     13997
     13994     13992     13995     13998     13995     13998     14001     14002
     13995     13998     14001     14003     13995     13998     14001     14004
     13996     13995     13998     13999     13996     13995     13998     14000
     13996     13995     13998     14001     13997     13995     13998     13999
     13997     13995     13998     14000     13997     13995     13998     14001
     13998     14001     14004     14005     13998     14001     14004     14006
     13998     14001     14004     14007     13999     13998     14001     14002
     13999     13998     14001     14003     13999     13998     14001     14004
     14000     13998     14001     14002     14000     13998     14001     14003
     14000     13998     14001     14004     14001     14004     14007     14008
     14001     14004     14007     14009     14001     14004     14007     14010
     14002     14001     14004     14005     14002     14001     14004     14006
     14002     14001     14004     14007     14003     14001     14004     14005
     14003     14001     14004     14006     14003     14001     14004     14007
     14004     14007     14010     14011     14004     14007     14010     14012
     14004     14007     14010     14013     14005     14004     14007     14008
     14005     14004     14007     14009     14005     14004     14007     14010
     14006     14004     14007     14008     14006     14004     14007     14009
     14006     14004     14007     14010     14007     14010     14013     14014
     14007     14010     14013     14015     14007     14010     14013     14016
     14008     14007     14010     14011     14008     14007     14010     14012
     14008     14007     14010     14013     14009     14007     14010     14011
     14009     14007     14010     14012     14009     14007     14010     14013
     14010     14013     14016     14017     14010     14013     14016     14018
     14010     14013     14016     14019     14011     14010     14013     14014
     14011     14010     14013     14015     14011     14010     14013     14016
     14012     14010     14013     14014     14012     14010     14013     14015
     14012     14010     14013     14016     14013     14016     14019     14020
     14013     14016     14019     14021     14013     14016     14019     14022
     14014     14013     14016     14017     14014     14013     14016     14018
     14014     14013     14016     14019     14015     14013     14016     14017
     14015     14013     14016     14018     14015     14013     14016     14019
     14016     14019     14022     14023     14016     14019     14022     14024
     14016     14019     14022     14025     14017     14016     14019     14020
     14017     14016     14019     14021     14017     14016     14019     14022
     14018     14016     14019     14020     14018     14016     14019     14021
     14018     14016     14019     14022     14019     14022     14025     14026
     14019     14022     14025     14027     14019     14022     14025     14028
     14020     14019     14022     14023     14020     14019     14022     14024
     14020     14019     14022     14025     14021     14019     14022     14023
     14021     14019     14022     14024     14021     14019     14022     14025
     14023     14022     14025     14026     14023     14022     14025     14027
     14023     14022     14025     14028     14024     14022     14025     14026
     14024     14022     14025     14027     14024     14022     14025     14028
     14029     14030     14045     14046     14029     14030     14045     14047
     14029     14030     14045     14051     14030     14029     14033     14034
     14030     14029     14033     14035     14030     14029     14033     14036
     14030     14029     14037     14038     14030     14029     14037     14039
     14030     14029     14037     14040     14030     14029     14041     14042
     14030     14029     14041     14043     14030     14029     14041     14044
     14030     14045     14051     14048     14031     14030     14029     14033
     14031     14030     14029     14037     14031     14030     14029     14041
     14031     14030     14045     14046     14031     14030     14045     14047
     14031     14030     14045     14051     14032     14030     14029     14033
     14032     14030     14029     14037     14032     14030     14029     14041
     14032     14030     14045     14046     14032     14030     14045     14047
     14032     14030     14045     14051     14033     14029     14030     14045
     14033     14029     14037     14038     14033     14029     14037     14039
     14033     14029     14037     14040     14033     14029     14041     14042
     14033     14029     14041     14043     14033     14029     14041     14044
     14034     14033     14029     14037     14034     14033     14029     14041
     14035     14033     14029     14037     14035     14033     14029     14041
     14036     14033     14029     14037     14036     14033     14029     14041
     14037     14029     14030     14045     14037     14029     14041     14042
     14037     14029     14041     14043     14037     14029     14041     14044
     14038     14037     14029     14041     14039     14037     14029     14041
     14040     14037     14029     14041     14041     14029     14030     14045
     14045     14051     14048     14049     14045     14051     14048     14050
     14045     14051     14048     14052     14046     14045     14051     14048
     14047     14045     14051     14048     14048     14052     14053     14054
     14048     14052     14053     14055     14048     14052     14053     14056
     14049     14048     14052     14053     14050     14048     14052     14053
     14051     14048     14052     14053     14052     14053     14056     14057
     14052     14053     14056     14058     14052     14053     14056     14064
     14053     14056     14058     14059     14053     14056     14064     14065
     14053     14056     14064     14066     14053     14056     14064     14067
     14054     14053     14056     14057     14054     14053     14056     14058
     14054     14053     14056     14064     14055     14053     14056     14057
     14055     14053     14056     14058     14055     14053     14056     14064
     14056     14058     14059     14060     14056     14058     14059     14061
     14056     14064     14067     14068     14057     14056     14058     14059
     14057     14056     14064     14065     14057     14056     14064     14066
     14057     14056     14064     14067     14058     14056     14064     14065
     14058     14056     14064     14066     14058     14056     14064     14067
     14058     14059     14061     14062     14058     14059     14061     14063
     14058     14059     14061     14073     14059     14058     14056     14064
     14059     14061     14073     14074     14059     14061     14073     14075
     14059     14061     14073     14076     14060     14059     14061     14062
     14060     14059     14061     14063     14060     14059     14061     14073
     14061     14073     14076     14077     14061     14073     14076     14078
     14061     14073     14076     14079     14062     14061     14073     14074
     14062     14061     14073     14075     14062     14061     14073     14076
     14063     14061     14073     14074     14063     14061     14073     14075
     14063     14061     14073     14076     14064     14067     14068     14069
     14064     14067     14068     14070     14065     14064     14067     14068
     14066     14064     14067     14068     14067     14068     14070     14071
     14067     14068     14070     14072     14067     14068     14070     14120
     14068     14070     14120     14121     14068     14070     14120     14122
     14068     14070     14120     14123     14069     14068     14070     14071
     14069     14068     14070     14072     14069     14068     14070     14120
     14070     14120     14123     14124     14070     14120     14123     14125
     14070     14120     14123     14126     14071     14070     14120     14121
     14071     14070     14120     14122     14071     14070     14120     14123
     14072     14070     14120     14121     14072     14070     14120     14122
     14072     14070     14120     14123     14073     14076     14079     14080
     14073     14076     14079     14081     14073     14076     14079     14082
     14074     14073     14076     14077     14074     14073     14076     14078
     14074     14073     14076     14079     14075     14073     14076     14077
     14075     14073     14076     14078     14075     14073     14076     14079
     14076     14079     14082     14083     14076     14079     14082     14084
     14076     14079     14082     14085     14077     14076     14079     14080
     14077     14076     14079     14081     14077     14076     14079     14082
     14078     14076     14079     14080     14078     14076     14079     14081
     14078     14076     14079     14082     14079     14082     14085     14086
     14079     14082     14085     14087     14079     14082     14085     14088
     14080     14079     14082     14083     14080     14079     14082     14084
     14080     14079     14082     14085     14081     14079     14082     14083
     14081     14079     14082     14084     14081     14079     14082     14085
     14082     14085     14088     14089     14082     14085     14088     14090
     14082     14085     14088     14091     14083     14082     14085     14086
     14083     14082     14085     14087     14083     14082     14085     14088
     14084     14082     14085     14086     14084     14082     14085     14087
     14084     14082     14085     14088     14085     14088     14091     14092
     14085     14088     14091     14093     14086     14085     14088     14089
     14086     14085     14088     14090     14086     14085     14088     14091
     14087     14085     14088     14089     14087     14085     14088     14090
     14087     14085     14088     14091     14088     14091     14093     14094
     14088     14091     14093     14095     14089     14088     14091     14092
     14089     14088     14091     14093     14090     14088     14091     14092
     14090     14088     14091     14093     14091     14093     14095     14096
     14091     14093     14095     14097     14091     14093     14095     14098
     14092     14091     14093     14094     14092     14091     14093     14095
     14093     14095     14098     14099     14093     14095     14098     14100
     14093     14095     14098     14101     14094     14093     14095     14096
     14094     14093     14095     14097     14094     14093     14095     14098
     14095     14098     14101     14102     14095     14098     14101     14103
     14095     14098     14101     14104     14096     14095     14098     14099
     14096     14095     14098     14100     14096     14095     14098     14101
     14097     14095     14098     14099     14097     14095     14098     14100
     14097     14095     14098     14101     14098     14101     14104     14105
     14098     14101     14104     14106     14098     14101     14104     14107
     14099     14098     14101     14102     14099     14098     14101     14103
     14099     14098     14101     14104     14100     14098     14101     14102
     14100     14098     14101     14103     14100     14098     14101     14104
     14101     14104     14107     14108     14101     14104     14107     14109
     14101     14104     14107     14110     14102     14101     14104     14105
     14102     14101     14104     14106     14102     14101     14104     14107
     14103     14101     14104     14105     14103     14101     14104     14106
     14103     14101     14104     14107     14104     14107     14110     14111
     14104     14107     14110     14112     14104     14107     14110     14113
     14105     14104     14107     14108     14105     14104     14107     14109
     14105     14104     14107     14110     14106     14104     14107     14108
     14106     14104     14107     14109     14106     14104     14107     14110
     14107     14110     14113     14114     14107     14110     14113     14115
     14107     14110     14113     14116     14108     14107     14110     14111
     14108     14107     14110     14112     14108     14107     14110     14113
     14109     14107     14110     14111     14109     14107     14110     14112
     14109     14107     14110     14113     14110     14113     14116     14117
     14110     14113     14116     14118     14110     14113     14116     14119
     14111     14110     14113     14114     14111     14110     14113     14115
     14111     14110     14113     14116     14112     14110     14113     14114
     14112     14110     14113     14115     14112     14110     14113     14116
     14114     14113     14116     14117     14114     14113     14116     14118
     14114     14113     14116     14119     14115     14113     14116     14117
     14115     14113     14116     14118     14115     14113     14116     14119
     14120     14123     14126     14127     14120     14123     14126     14128
     14120     14123     14126     14129     14121     14120     14123     14124
     14121     14120     14123     14125     14121     14120     14123     14126
     14122     14120     14123     14124     14122     14120     14123     14125
     14122     14120     14123     14126     14123     14126     14129     14130
     14123     14126     14129     14131     14123     14126     14129     14132
     14124     14123     14126     14127     14124     14123     14126     14128
     14124     14123     14126     14129     14125     14123     14126     14127
     14125     14123     14126     14128     14125     14123     14126     14129
     14126     14129     14132     14133     14126     14129     14132     14134
     14126     14129     14132     14135     14127     14126     14129     14130
     14127     14126     14129     14131     14127     14126     14129     14132
     14128     14126     14129     14130     14128     14126     14129     14131
     14128     14126     14129     14132     14129     14132     14135     14136
     14129     14132     14135     14137     14129     14132     14135     14138
     14130     14129     14132     14133     14130     14129     14132     14134
     14130     14129     14132     14135     14131     14129     14132     14133
     14131     14129     14132     14134     14131     14129     14132     14135
     14132     14135     14138     14139     14132     14135     14138     14140
     14132     14135     14138     14141     14133     14132     14135     14136
     14133     14132     14135     14137     14133     14132     14135     14138
     14134     14132     14135     14136     14134     14132     14135     14137
     14134     14132     14135     14138     14135     14138     14141     14142
     14135     14138     14141     14143     14135     14138     14141     14144
     14136     14135     14138     14139     14136     14135     14138     14140
     14136     14135     14138     14141     14137     14135     14138     14139
     14137     14135     14138     14140     14137     14135     14138     14141
     14138     14141     14144     14145     14138     14141     14144     14146
     14138     14141     14144     14147     14139     14138     14141     14142
     14139     14138     14141     14143     14139     14138     14141     14144
     14140     14138     14141     14142     14140     14138     14141     14143
     14140     14138     14141     14144     14141     14144     14147     14148
     14141     14144     14147     14149     14141     14144     14147     14150
     14142     14141     14144     14145     14142     14141     14144     14146
     14142     14141     14144     14147     14143     14141     14144     14145
     14143     14141     14144     14146     14143     14141     14144     14147
     14144     14147     14150     14151     14144     14147     14150     14152
     14144     14147     14150     14153     14145     14144     14147     14148
     14145     14144     14147     14149     14145     14144     14147     14150
     14146     14144     14147     14148     14146     14144     14147     14149
     14146     14144     14147     14150     14147     14150     14153     14154
     14147     14150     14153     14155     14147     14150     14153     14156
     14148     14147     14150     14151     14148     14147     14150     14152
     14148     14147     14150     14153     14149     14147     14150     14151
     14149     14147     14150     14152     14149     14147     14150     14153
     14150     14153     14156     14157     14150     14153     14156     14158
     14150     14153     14156     14159     14151     14150     14153     14154
     14151     14150     14153     14155     14151     14150     14153     14156
     14152     14150     14153     14154     14152     14150     14153     14155
     14152     14150     14153     14156     14153     14156     14159     14160
     14153     14156     14159     14161     14153     14156     14159     14162
     14154     14153     14156     14157     14154     14153     14156     14158
     14154     14153     14156     14159     14155     14153     14156     14157
     14155     14153     14156     14158     14155     14153     14156     14159
     14157     14156     14159     14160     14157     14156     14159     14161
     14157     14156     14159     14162     14158     14156     14159     14160
     14158     14156     14159     14161     14158     14156     14159     14162
     14163     14164     14179     14180     14163     14164     14179     14181
     14163     14164     14179     14185     14164     14163     14167     14168
     14164     14163     14167     14169     14164     14163     14167     14170
     14164     14163     14171     14172     14164     14163     14171     14173
     14164     14163     14171     14174     14164     14163     14175     14176
     14164     14163     14175     14177     14164     14163     14175     14178
     14164     14179     14185     14182     14165     14164     14163     14167
     14165     14164     14163     14171     14165     14164     14163     14175
     14165     14164     14179     14180     14165     14164     14179     14181
     14165     14164     14179     14185     14166     14164     14163     14167
     14166     14164     14163     14171     14166     14164     14163     14175
     14166     14164     14179     14180     14166     14164     14179     14181
     14166     14164     14179     14185     14167     14163     14164     14179
     14167     14163     14171     14172     14167     14163     14171     14173
     14167     14163     14171     14174     14167     14163     14175     14176
     14167     14163     14175     14177     14167     14163     14175     14178
     14168     14167     14163     14171     14168     14167     14163     14175
     14169     14167     14163     14171     14169     14167     14163     14175
     14170     14167     14163     14171     14170     14167     14163     14175
     14171     14163     14164     14179     14171     14163     14175     14176
     14171     14163     14175     14177     14171     14163     14175     14178
     14172     14171     14163     14175     14173     14171     14163     14175
     14174     14171     14163     14175     14175     14163     14164     14179
     14179     14185     14182     14183     14179     14185     14182     14184
     14179     14185     14182     14186     14180     14179     14185     14182
     14181     14179     14185     14182     14182     14186     14187     14188
     14182     14186     14187     14189     14182     14186     14187     14190
     14183     14182     14186     14187     14184     14182     14186     14187
     14185     14182     14186     14187     14186     14187     14190     14191
     14186     14187     14190     14192     14186     14187     14190     14198
     14187     14190     14192     14193     14187     14190     14198     14199
     14187     14190     14198     14200     14187     14190     14198     14201
     14188     14187     14190     14191     14188     14187     14190     14192
     14188     14187     14190     14198     14189     14187     14190     14191
     14189     14187     14190     14192     14189     14187     14190     14198
     14190     14192     14193     14194     14190     14192     14193     14195
     14190     14198     14201     14202     14191     14190     14192     14193
     14191     14190     14198     14199     14191     14190     14198     14200
     14191     14190     14198     14201     14192     14190     14198     14199
     14192     14190     14198     14200     14192     14190     14198     14201
     14192     14193     14195     14196     14192     14193     14195     14197
     14192     14193     14195     14207     14193     14192     14190     14198
     14193     14195     14207     14208     14193     14195     14207     14209
     14193     14195     14207     14210     14194     14193     14195     14196
     14194     14193     14195     14197     14194     14193     14195     14207
     14195     14207     14210     14211     14195     14207     14210     14212
     14195     14207     14210     14213     14196     14195     14207     14208
     14196     14195     14207     14209     14196     14195     14207     14210
     14197     14195     14207     14208     14197     14195     14207     14209
     14197     14195     14207     14210     14198     14201     14202     14203
     14198     14201     14202     14204     14199     14198     14201     14202
     14200     14198     14201     14202     14201     14202     14204     14205
     14201     14202     14204     14206     14201     14202     14204     14254
     14202     14204     14254     14255     14202     14204     14254     14256
     14202     14204     14254     14257     14203     14202     14204     14205
     14203     14202     14204     14206     14203     14202     14204     14254
     14204     14254     14257     14258     14204     14254     14257     14259
     14204     14254     14257     14260     14205     14204     14254     14255
     14205     14204     14254     14256     14205     14204     14254     14257
     14206     14204     14254     14255     14206     14204     14254     14256
     14206     14204     14254     14257     14207     14210     14213     14214
     14207     14210     14213     14215     14207     14210     14213     14216
     14208     14207     14210     14211     14208     14207     14210     14212
     14208     14207     14210     14213     14209     14207     14210     14211
     14209     14207     14210     14212     14209     14207     14210     14213
     14210     14213     14216     14217     14210     14213     14216     14218
     14210     14213     14216     14219     14211     14210     14213     14214
     14211     14210     14213     14215     14211     14210     14213     14216
     14212     14210     14213     14214     14212     14210     14213     14215
     14212     14210     14213     14216     14213     14216     14219     14220
     14213     14216     14219     14221     14213     14216     14219     14222
     14214     14213     14216     14217     14214     14213     14216     14218
     14214     14213     14216     14219     14215     14213     14216     14217
     14215     14213     14216     14218     14215     14213     14216     14219
     14216     14219     14222     14223     14216     14219     14222     14224
     14216     14219     14222     14225     14217     14216     14219     14220
     14217     14216     14219     14221     14217     14216     14219     14222
     14218     14216     14219     14220     14218     14216     14219     14221
     14218     14216     14219     14222     14219     14222     14225     14226
     14219     14222     14225     14227     14220     14219     14222     14223
     14220     14219     14222     14224     14220     14219     14222     14225
     14221     14219     14222     14223     14221     14219     14222     14224
     14221     14219     14222     14225     14222     14225     14227     14228
     14222     14225     14227     14229     14223     14222     14225     14226
     14223     14222     14225     14227     14224     14222     14225     14226
     14224     14222     14225     14227     14225     14227     14229     14230
     14225     14227     14229     14231     14225     14227     14229     14232
     14226     14225     14227     14228     14226     14225     14227     14229
     14227     14229     14232     14233     14227     14229     14232     14234
     14227     14229     14232     14235     14228     14227     14229     14230
     14228     14227     14229     14231     14228     14227     14229     14232
     14229     14232     14235     14236     14229     14232     14235     14237
     14229     14232     14235     14238     14230     14229     14232     14233
     14230     14229     14232     14234     14230     14229     14232     14235
     14231     14229     14232     14233     14231     14229     14232     14234
     14231     14229     14232     14235     14232     14235     14238     14239
     14232     14235     14238     14240     14232     14235     14238     14241
     14233     14232     14235     14236     14233     14232     14235     14237
     14233     14232     14235     14238     14234     14232     14235     14236
     14234     14232     14235     14237     14234     14232     14235     14238
     14235     14238     14241     14242     14235     14238     14241     14243
     14235     14238     14241     14244     14236     14235     14238     14239
     14236     14235     14238     14240     14236     14235     14238     14241
     14237     14235     14238     14239     14237     14235     14238     14240
     14237     14235     14238     14241     14238     14241     14244     14245
     14238     14241     14244     14246     14238     14241     14244     14247
     14239     14238     14241     14242     14239     14238     14241     14243
     14239     14238     14241     14244     14240     14238     14241     14242
     14240     14238     14241     14243     14240     14238     14241     14244
     14241     14244     14247     14248     14241     14244     14247     14249
     14241     14244     14247     14250     14242     14241     14244     14245
     14242     14241     14244     14246     14242     14241     14244     14247
     14243     14241     14244     14245     14243     14241     14244     14246
     14243     14241     14244     14247     14244     14247     14250     14251
     14244     14247     14250     14252     14244     14247     14250     14253
     14245     14244     14247     14248     14245     14244     14247     14249
     14245     14244     14247     14250     14246     14244     14247     14248
     14246     14244     14247     14249     14246     14244     14247     14250
     14248     14247     14250     14251     14248     14247     14250     14252
     14248     14247     14250     14253     14249     14247     14250     14251
     14249     14247     14250     14252     14249     14247     14250     14253
     14254     14257     14260     14261     14254     14257     14260     14262
     14254     14257     14260     14263     14255     14254     14257     14258
     14255     14254     14257     14259     14255     14254     14257     14260
     14256     14254     14257     14258     14256     14254     14257     14259
     14256     14254     14257     14260     14257     14260     14263     14264
     14257     14260     14263     14265     14257     14260     14263     14266
     14258     14257     14260     14261     14258     14257     14260     14262
     14258     14257     14260     14263     14259     14257     14260     14261
     14259     14257     14260     14262     14259     14257     14260     14263
     14260     14263     14266     14267     14260     14263     14266     14268
     14260     14263     14266     14269     14261     14260     14263     14264
     14261     14260     14263     14265     14261     14260     14263     14266
     14262     14260     14263     14264     14262     14260     14263     14265
     14262     14260     14263     14266     14263     14266     14269     14270
     14263     14266     14269     14271     14263     14266     14269     14272
     14264     14263     14266     14267     14264     14263     14266     14268
     14264     14263     14266     14269     14265     14263     14266     14267
     14265     14263     14266     14268     14265     14263     14266     14269
     14266     14269     14272     14273     14266     14269     14272     14274
     14266     14269     14272     14275     14267     14266     14269     14270
     14267     14266     14269     14271     14267     14266     14269     14272
     14268     14266     14269     14270     14268     14266     14269     14271
     14268     14266     14269     14272     14269     14272     14275     14276
     14269     14272     14275     14277     14269     14272     14275     14278
     14270     14269     14272     14273     14270     14269     14272     14274
     14270     14269     14272     14275     14271     14269     14272     14273
     14271     14269     14272     14274     14271     14269     14272     14275
     14272     14275     14278     14279     14272     14275     14278     14280
     14272     14275     14278     14281     14273     14272     14275     14276
     14273     14272     14275     14277     14273     14272     14275     14278
     14274     14272     14275     14276     14274     14272     14275     14277
     14274     14272     14275     14278     14275     14278     14281     14282
     14275     14278     14281     14283     14275     14278     14281     14284
     14276     14275     14278     14279     14276     14275     14278     14280
     14276     14275     14278     14281     14277     14275     14278     14279
     14277     14275     14278     14280     14277     14275     14278     14281
     14278     14281     14284     14285     14278     14281     14284     14286
     14278     14281     14284     14287     14279     14278     14281     14282
     14279     14278     14281     14283     14279     14278     14281     14284
     14280     14278     14281     14282     14280     14278     14281     14283
     14280     14278     14281     14284     14281     14284     14287     14288
     14281     14284     14287     14289     14281     14284     14287     14290
     14282     14281     14284     14285     14282     14281     14284     14286
     14282     14281     14284     14287     14283     14281     14284     14285
     14283     14281     14284     14286     14283     14281     14284     14287
     14284     14287     14290     14291     14284     14287     14290     14292
     14284     14287     14290     14293     14285     14284     14287     14288
     14285     14284     14287     14289     14285     14284     14287     14290
     14286     14284     14287     14288     14286     14284     14287     14289
     14286     14284     14287     14290     14287     14290     14293     14294
     14287     14290     14293     14295     14287     14290     14293     14296
     14288     14287     14290     14291     14288     14287     14290     14292
     14288     14287     14290     14293     14289     14287     14290     14291
     14289     14287     14290     14292     14289     14287     14290     14293
     14291     14290     14293     14294     14291     14290     14293     14295
     14291     14290     14293     14296     14292     14290     14293     14294
     14292     14290     14293     14295     14292     14290     14293     14296
     14297     14301     14303     14304     14297     14301     14303     14305
     14297     14301     14306     14307     14297     14301     14306     14308
     14297     14301     14306     14312     14298     14297     14301     14302
     14298     14297     14301     14303     14298     14297     14301     14306
     14299     14297     14301     14302     14299     14297     14301     14303
     14299     14297     14301     14306     14300     14297     14301     14302
     14300     14297     14301     14303     14300     14297     14301     14306
     14301     14306     14312     14309     14302     14301     14303     14304
     14302     14301     14303     14305     14302     14301     14306     14307
     14302     14301     14306     14308     14302     14301     14306     14312
     14303     14301     14306     14307     14303     14301     14306     14308
     14303     14301     14306     14312     14304     14303     14301     14306
     14305     14303     14301     14306     14306     14312     14309     14310
     14306     14312     14309     14311     14306     14312     14309     14313
     14307     14306     14312     14309     14308     14306     14312     14309
     14309     14313     14314     14315     14309     14313     14314     14316
     14309     14313     14314     14317     14310     14309     14313     14314
     14311     14309     14313     14314     14312     14309     14313     14314
     14313     14314     14317     14318     14313     14314     14317     14319
     14313     14314     14317     14325     14314     14317     14319     14320
     14314     14317     14325     14326     14314     14317     14325     14327
     14314     14317     14325     14328     14315     14314     14317     14318
     14315     14314     14317     14319     14315     14314     14317     14325
     14316     14314     14317     14318     14316     14314     14317     14319
     14316     14314     14317     14325     14317     14319     14320     14321
     14317     14319     14320     14322     14317     14325     14328     14329
     14318     14317     14319     14320     14318     14317     14325     14326
     14318     14317     14325     14327     14318     14317     14325     14328
     14319     14317     14325     14326     14319     14317     14325     14327
     14319     14317     14325     14328     14319     14320     14322     14323
     14319     14320     14322     14324     14319     14320     14322     14334
     14320     14319     14317     14325     14320     14322     14334     14335
     14320     14322     14334     14336     14320     14322     14334     14337
     14321     14320     14322     14323     14321     14320     14322     14324
     14321     14320     14322     14334     14322     14334     14337     14338
     14322     14334     14337     14339     14322     14334     14337     14340
     14323     14322     14334     14335     14323     14322     14334     14336
     14323     14322     14334     14337     14324     14322     14334     14335
     14324     14322     14334     14336     14324     14322     14334     14337
     14325     14328     14329     14330     14325     14328     14329     14331
     14326     14325     14328     14329     14327     14325     14328     14329
     14328     14329     14331     14332     14328     14329     14331     14333
     14328     14329     14331     14381     14329     14331     14381     14382
     14329     14331     14381     14383     14329     14331     14381     14384
     14330     14329     14331     14332     14330     14329     14331     14333
     14330     14329     14331     14381     14331     14381     14384     14385
     14331     14381     14384     14386     14331     14381     14384     14387
     14332     14331     14381     14382     14332     14331     14381     14383
     14332     14331     14381     14384     14333     14331     14381     14382
     14333     14331     14381     14383     14333     14331     14381     14384
     14334     14337     14340     14341     14334     14337     14340     14342
     14334     14337     14340     14343     14335     14334     14337     14338
     14335     14334     14337     14339     14335     14334     14337     14340
     14336     14334     14337     14338     14336     14334     14337     14339
     14336     14334     14337     14340     14337     14340     14343     14344
     14337     14340     14343     14345     14337     14340     14343     14346
     14338     14337     14340     14341     14338     14337     14340     14342
     14338     14337     14340     14343     14339     14337     14340     14341
     14339     14337     14340     14342     14339     14337     14340     14343
     14340     14343     14346     14347     14340     14343     14346     14348
     14340     14343     14346     14349     14341     14340     14343     14344
     14341     14340     14343     14345     14341     14340     14343     14346
     14342     14340     14343     14344     14342     14340     14343     14345
     14342     14340     14343     14346     14343     14346     14349     14350
     14343     14346     14349     14351     14343     14346     14349     14352
     14344     14343     14346     14347     14344     14343     14346     14348
     14344     14343     14346     14349     14345     14343     14346     14347
     14345     14343     14346     14348     14345     14343     14346     14349
     14346     14349     14352     14353     14346     14349     14352     14354
     14347     14346     14349     14350     14347     14346     14349     14351
     14347     14346     14349     14352     14348     14346     14349     14350
     14348     14346     14349     14351     14348     14346     14349     14352
     14349     14352     14354     14355     14349     14352     14354     14356
     14350     14349     14352     14353     14350     14349     14352     14354
     14351     14349     14352     14353     14351     14349     14352     14354
     14352     14354     14356     14357     14352     14354     14356     14358
     14352     14354     14356     14359     14353     14352     14354     14355
     14353     14352     14354     14356     14354     14356     14359     14360
     14354     14356     14359     14361     14354     14356     14359     14362
     14355     14354     14356     14357     14355     14354     14356     14358
     14355     14354     14356     14359     14356     14359     14362     14363
     14356     14359     14362     14364     14356     14359     14362     14365
     14357     14356     14359     14360     14357     14356     14359     14361
     14357     14356     14359     14362     14358     14356     14359     14360
     14358     14356     14359     14361     14358     14356     14359     14362
     14359     14362     14365     14366     14359     14362     14365     14367
     14359     14362     14365     14368     14360     14359     14362     14363
     14360     14359     14362     14364     14360     14359     14362     14365
     14361     14359     14362     14363     14361     14359     14362     14364
     14361     14359     14362     14365     14362     14365     14368     14369
     14362     14365     14368     14370     14362     14365     14368     14371
     14363     14362     14365     14366     14363     14362     14365     14367
     14363     14362     14365     14368     14364     14362     14365     14366
     14364     14362     14365     14367     14364     14362     14365     14368
     14365     14368     14371     14372     14365     14368     14371     14373
     14365     14368     14371     14374     14366     14365     14368     14369
     14366     14365     14368     14370     14366     14365     14368     14371
     14367     14365     14368     14369     14367     14365     14368     14370
     14367     14365     14368     14371     14368     14371     14374     14375
     14368     14371     14374     14376     14368     14371     14374     14377
     14369     14368     14371     14372     14369     14368     14371     14373
     14369     14368     14371     14374     14370     14368     14371     14372
     14370     14368     14371     14373     14370     14368     14371     14374
     14371     14374     14377     14378     14371     14374     14377     14379
     14371     14374     14377     14380     14372     14371     14374     14375
     14372     14371     14374     14376     14372     14371     14374     14377
     14373     14371     14374     14375     14373     14371     14374     14376
     14373     14371     14374     14377     14375     14374     14377     14378
     14375     14374     14377     14379     14375     14374     14377     14380
     14376     14374     14377     14378     14376     14374     14377     14379
     14376     14374     14377     14380     14381     14384     14387     14388
     14381     14384     14387     14389     14381     14384     14387     14390
     14382     14381     14384     14385     14382     14381     14384     14386
     14382     14381     14384     14387     14383     14381     14384     14385
     14383     14381     14384     14386     14383     14381     14384     14387
     14384     14387     14390     14391     14384     14387     14390     14392
     14384     14387     14390     14393     14385     14384     14387     14388
     14385     14384     14387     14389     14385     14384     14387     14390
     14386     14384     14387     14388     14386     14384     14387     14389
     14386     14384     14387     14390     14387     14390     14393     14394
     14387     14390     14393     14395     14387     14390     14393     14396
     14388     14387     14390     14391     14388     14387     14390     14392
     14388     14387     14390     14393     14389     14387     14390     14391
     14389     14387     14390     14392     14389     14387     14390     14393
     14390     14393     14396     14397     14390     14393     14396     14398
     14390     14393     14396     14399     14391     14390     14393     14394
     14391     14390     14393     14395     14391     14390     14393     14396
     14392     14390     14393     14394     14392     14390     14393     14395
     14392     14390     14393     14396     14393     14396     14399     14400
     14393     14396     14399     14401     14393     14396     14399     14402
     14394     14393     14396     14397     14394     14393     14396     14398
     14394     14393     14396     14399     14395     14393     14396     14397
     14395     14393     14396     14398     14395     14393     14396     14399
     14396     14399     14402     14403     14396     14399     14402     14404
     14396     14399     14402     14405     14397     14396     14399     14400
     14397     14396     14399     14401     14397     14396     14399     14402
     14398     14396     14399     14400     14398     14396     14399     14401
     14398     14396     14399     14402     14399     14402     14405     14406
     14399     14402     14405     14407     14399     14402     14405     14408
     14400     14399     14402     14403     14400     14399     14402     14404
     14400     14399     14402     14405     14401     14399     14402     14403
     14401     14399     14402     14404     14401     14399     14402     14405
     14402     14405     14408     14409     14402     14405     14408     14410
     14402     14405     14408     14411     14403     14402     14405     14406
     14403     14402     14405     14407     14403     14402     14405     14408
     14404     14402     14405     14406     14404     14402     14405     14407
     14404     14402     14405     14408     14405     14408     14411     14412
     14405     14408     14411     14413     14405     14408     14411     14414
     14406     14405     14408     14409     14406     14405     14408     14410
     14406     14405     14408     14411     14407     14405     14408     14409
     14407     14405     14408     14410     14407     14405     14408     14411
     14408     14411     14414     14415     14408     14411     14414     14416
     14408     14411     14414     14417     14409     14408     14411     14412
     14409     14408     14411     14413     14409     14408     14411     14414
     14410     14408     14411     14412     14410     14408     14411     14413
     14410     14408     14411     14414     14411     14414     14417     14418
     14411     14414     14417     14419     14411     14414     14417     14420
     14412     14411     14414     14415     14412     14411     14414     14416
     14412     14411     14414     14417     14413     14411     14414     14415
     14413     14411     14414     14416     14413     14411     14414     14417
     14414     14417     14420     14421     14414     14417     14420     14422
     14414     14417     14420     14423     14415     14414     14417     14418
     14415     14414     14417     14419     14415     14414     14417     14420
     14416     14414     14417     14418     14416     14414     14417     14419
     14416     14414     14417     14420     14418     14417     14420     14421
     14418     14417     14420     14422     14418     14417     14420     14423
     14419     14417     14420     14421     14419     14417     14420     14422
     14419     14417     14420     14423     14424     14425     14440     14441
     14424     14425     14440     14442     14424     14425     14440     14446
     14425     14424     14428     14429     14425     14424     14428     14430
     14425     14424     14428     14431     14425     14424     14432     14433
     14425     14424     14432     14434     14425     14424     14432     14435
     14425     14424     14436     14437     14425     14424     14436     14438
     14425     14424     14436     14439     14425     14440     14446     14443
     14426     14425     14424     14428     14426     14425     14424     14432
     14426     14425     14424     14436     14426     14425     14440     14441
     14426     14425     14440     14442     14426     14425     14440     14446
     14427     14425     14424     14428     14427     14425     14424     14432
     14427     14425     14424     14436     14427     14425     14440     14441
     14427     14425     14440     14442     14427     14425     14440     14446
     14428     14424     14425     14440     14428     14424     14432     14433
     14428     14424     14432     14434     14428     14424     14432     14435
     14428     14424     14436     14437     14428     14424     14436     14438
     14428     14424     14436     14439     14429     14428     14424     14432
     14429     14428     14424     14436     14430     14428     14424     14432
     14430     14428     14424     14436     14431     14428     14424     14432
     14431     14428     14424     14436     14432     14424     14425     14440
     14432     14424     14436     14437     14432     14424     14436     14438
     14432     14424     14436     14439     14433     14432     14424     14436
     14434     14432     14424     14436     14435     14432     14424     14436
     14436     14424     14425     14440     14440     14446     14443     14444
     14440     14446     14443     14445     14440     14446     14443     14447
     14441     14440     14446     14443     14442     14440     14446     14443
     14443     14447     14448     14449     14443     14447     14448     14450
     14443     14447     14448     14451     14444     14443     14447     14448
     14445     14443     14447     14448     14446     14443     14447     14448
     14447     14448     14451     14452     14447     14448     14451     14453
     14447     14448     14451     14459     14448     14451     14453     14454
     14448     14451     14459     14460     14448     14451     14459     14461
     14448     14451     14459     14462     14449     14448     14451     14452
     14449     14448     14451     14453     14449     14448     14451     14459
     14450     14448     14451     14452     14450     14448     14451     14453
     14450     14448     14451     14459     14451     14453     14454     14455
     14451     14453     14454     14456     14451     14459     14462     14463
     14452     14451     14453     14454     14452     14451     14459     14460
     14452     14451     14459     14461     14452     14451     14459     14462
     14453     14451     14459     14460     14453     14451     14459     14461
     14453     14451     14459     14462     14453     14454     14456     14457
     14453     14454     14456     14458     14453     14454     14456     14468
     14454     14453     14451     14459     14454     14456     14468     14469
     14454     14456     14468     14470     14454     14456     14468     14471
     14455     14454     14456     14457     14455     14454     14456     14458
     14455     14454     14456     14468     14456     14468     14471     14472
     14456     14468     14471     14473     14456     14468     14471     14474
     14457     14456     14468     14469     14457     14456     14468     14470
     14457     14456     14468     14471     14458     14456     14468     14469
     14458     14456     14468     14470     14458     14456     14468     14471
     14459     14462     14463     14464     14459     14462     14463     14465
     14460     14459     14462     14463     14461     14459     14462     14463
     14462     14463     14465     14466     14462     14463     14465     14467
     14462     14463     14465     14515     14463     14465     14515     14516
     14463     14465     14515     14517     14463     14465     14515     14518
     14464     14463     14465     14466     14464     14463     14465     14467
     14464     14463     14465     14515     14465     14515     14518     14519
     14465     14515     14518     14520     14465     14515     14518     14521
     14466     14465     14515     14516     14466     14465     14515     14517
     14466     14465     14515     14518     14467     14465     14515     14516
     14467     14465     14515     14517     14467     14465     14515     14518
     14468     14471     14474     14475     14468     14471     14474     14476
     14468     14471     14474     14477     14469     14468     14471     14472
     14469     14468     14471     14473     14469     14468     14471     14474
     14470     14468     14471     14472     14470     14468     14471     14473
     14470     14468     14471     14474     14471     14474     14477     14478
     14471     14474     14477     14479     14471     14474     14477     14480
     14472     14471     14474     14475     14472     14471     14474     14476
     14472     14471     14474     14477     14473     14471     14474     14475
     14473     14471     14474     14476     14473     14471     14474     14477
     14474     14477     14480     14481     14474     14477     14480     14482
     14474     14477     14480     14483     14475     14474     14477     14478
     14475     14474     14477     14479     14475     14474     14477     14480
     14476     14474     14477     14478     14476     14474     14477     14479
     14476     14474     14477     14480     14477     14480     14483     14484
     14477     14480     14483     14485     14477     14480     14483     14486
     14478     14477     14480     14481     14478     14477     14480     14482
     14478     14477     14480     14483     14479     14477     14480     14481
     14479     14477     14480     14482     14479     14477     14480     14483
     14480     14483     14486     14487     14480     14483     14486     14488
     14481     14480     14483     14484     14481     14480     14483     14485
     14481     14480     14483     14486     14482     14480     14483     14484
     14482     14480     14483     14485     14482     14480     14483     14486
     14483     14486     14488     14489     14483     14486     14488     14490
     14484     14483     14486     14487     14484     14483     14486     14488
     14485     14483     14486     14487     14485     14483     14486     14488
     14486     14488     14490     14491     14486     14488     14490     14492
     14486     14488     14490     14493     14487     14486     14488     14489
     14487     14486     14488     14490     14488     14490     14493     14494
     14488     14490     14493     14495     14488     14490     14493     14496
     14489     14488     14490     14491     14489     14488     14490     14492
     14489     14488     14490     14493     14490     14493     14496     14497
     14490     14493     14496     14498     14490     14493     14496     14499
     14491     14490     14493     14494     14491     14490     14493     14495
     14491     14490     14493     14496     14492     14490     14493     14494
     14492     14490     14493     14495     14492     14490     14493     14496
     14493     14496     14499     14500     14493     14496     14499     14501
     14493     14496     14499     14502     14494     14493     14496     14497
     14494     14493     14496     14498     14494     14493     14496     14499
     14495     14493     14496     14497     14495     14493     14496     14498
     14495     14493     14496     14499     14496     14499     14502     14503
     14496     14499     14502     14504     14496     14499     14502     14505
     14497     14496     14499     14500     14497     14496     14499     14501
     14497     14496     14499     14502     14498     14496     14499     14500
     14498     14496     14499     14501     14498     14496     14499     14502
     14499     14502     14505     14506     14499     14502     14505     14507
     14499     14502     14505     14508     14500     14499     14502     14503
     14500     14499     14502     14504     14500     14499     14502     14505
     14501     14499     14502     14503     14501     14499     14502     14504
     14501     14499     14502     14505     14502     14505     14508     14509
     14502     14505     14508     14510     14502     14505     14508     14511
     14503     14502     14505     14506     14503     14502     14505     14507
     14503     14502     14505     14508     14504     14502     14505     14506
     14504     14502     14505     14507     14504     14502     14505     14508
     14505     14508     14511     14512     14505     14508     14511     14513
     14505     14508     14511     14514     14506     14505     14508     14509
     14506     14505     14508     14510     14506     14505     14508     14511
     14507     14505     14508     14509     14507     14505     14508     14510
     14507     14505     14508     14511     14509     14508     14511     14512
     14509     14508     14511     14513     14509     14508     14511     14514
     14510     14508     14511     14512     14510     14508     14511     14513
     14510     14508     14511     14514     14515     14518     14521     14522
     14515     14518     14521     14523     14515     14518     14521     14524
     14516     14515     14518     14519     14516     14515     14518     14520
     14516     14515     14518     14521     14517     14515     14518     14519
     14517     14515     14518     14520     14517     14515     14518     14521
     14518     14521     14524     14525     14518     14521     14524     14526
     14518     14521     14524     14527     14519     14518     14521     14522
     14519     14518     14521     14523     14519     14518     14521     14524
     14520     14518     14521     14522     14520     14518     14521     14523
     14520     14518     14521     14524     14521     14524     14527     14528
     14521     14524     14527     14529     14521     14524     14527     14530
     14522     14521     14524     14525     14522     14521     14524     14526
     14522     14521     14524     14527     14523     14521     14524     14525
     14523     14521     14524     14526     14523     14521     14524     14527
     14524     14527     14530     14531     14524     14527     14530     14532
     14524     14527     14530     14533     14525     14524     14527     14528
     14525     14524     14527     14529     14525     14524     14527     14530
     14526     14524     14527     14528     14526     14524     14527     14529
     14526     14524     14527     14530     14527     14530     14533     14534
     14527     14530     14533     14535     14527     14530     14533     14536
     14528     14527     14530     14531     14528     14527     14530     14532
     14528     14527     14530     14533     14529     14527     14530     14531
     14529     14527     14530     14532     14529     14527     14530     14533
     14530     14533     14536     14537     14530     14533     14536     14538
     14530     14533     14536     14539     14531     14530     14533     14534
     14531     14530     14533     14535     14531     14530     14533     14536
     14532     14530     14533     14534     14532     14530     14533     14535
     14532     14530     14533     14536     14533     14536     14539     14540
     14533     14536     14539     14541     14533     14536     14539     14542
     14534     14533     14536     14537     14534     14533     14536     14538
     14534     14533     14536     14539     14535     14533     14536     14537
     14535     14533     14536     14538     14535     14533     14536     14539
     14536     14539     14542     14543     14536     14539     14542     14544
     14536     14539     14542     14545     14537     14536     14539     14540
     14537     14536     14539     14541     14537     14536     14539     14542
     14538     14536     14539     14540     14538     14536     14539     14541
     14538     14536     14539     14542     14539     14542     14545     14546
     14539     14542     14545     14547     14539     14542     14545     14548
     14540     14539     14542     14543     14540     14539     14542     14544
     14540     14539     14542     14545     14541     14539     14542     14543
     14541     14539     14542     14544     14541     14539     14542     14545
     14542     14545     14548     14549     14542     14545     14548     14550
     14542     14545     14548     14551     14543     14542     14545     14546
     14543     14542     14545     14547     14543     14542     14545     14548
     14544     14542     14545     14546     14544     14542     14545     14547
     14544     14542     14545     14548     14545     14548     14551     14552
     14545     14548     14551     14553     14545     14548     14551     14554
     14546     14545     14548     14549     14546     14545     14548     14550
     14546     14545     14548     14551     14547     14545     14548     14549
     14547     14545     14548     14550     14547     14545     14548     14551
     14548     14551     14554     14555     14548     14551     14554     14556
     14548     14551     14554     14557     14549     14548     14551     14552
     14549     14548     14551     14553     14549     14548     14551     14554
     14550     14548     14551     14552     14550     14548     14551     14553
     14550     14548     14551     14554     14552     14551     14554     14555
     14552     14551     14554     14556     14552     14551     14554     14557
     14553     14551     14554     14555     14553     14551     14554     14556
     14553     14551     14554     14557     14558     14559     14574     14575
     14558     14559     14574     14576     14558     14559     14574     14580
     14559     14558     14562     14563     14559     14558     14562     14564
     14559     14558     14562     14565     14559     14558     14566     14567
     14559     14558     14566     14568     14559     14558     14566     14569
     14559     14558     14570     14571     14559     14558     14570     14572
     14559     14558     14570     14573     14559     14574     14580     14577
     14560     14559     14558     14562     14560     14559     14558     14566
     14560     14559     14558     14570     14560     14559     14574     14575
     14560     14559     14574     14576     14560     14559     14574     14580
     14561     14559     14558     14562     14561     14559     14558     14566
     14561     14559     14558     14570     14561     14559     14574     14575
     14561     14559     14574     14576     14561     14559     14574     14580
     14562     14558     14559     14574     14562     14558     14566     14567
     14562     14558     14566     14568     14562     14558     14566     14569
     14562     14558     14570     14571     14562     14558     14570     14572
     14562     14558     14570     14573     14563     14562     14558     14566
     14563     14562     14558     14570     14564     14562     14558     14566
     14564     14562     14558     14570     14565     14562     14558     14566
     14565     14562     14558     14570     14566     14558     14559     14574
     14566     14558     14570     14571     14566     14558     14570     14572
     14566     14558     14570     14573     14567     14566     14558     14570
     14568     14566     14558     14570     14569     14566     14558     14570
     14570     14558     14559     14574     14574     14580     14577     14578
     14574     14580     14577     14579     14574     14580     14577     14581
     14575     14574     14580     14577     14576     14574     14580     14577
     14577     14581     14582     14583     14577     14581     14582     14584
     14577     14581     14582     14585     14578     14577     14581     14582
     14579     14577     14581     14582     14580     14577     14581     14582
     14581     14582     14585     14586     14581     14582     14585     14587
     14581     14582     14585     14593     14582     14585     14587     14588
     14582     14585     14593     14594     14582     14585     14593     14595
     14582     14585     14593     14596     14583     14582     14585     14586
     14583     14582     14585     14587     14583     14582     14585     14593
     14584     14582     14585     14586     14584     14582     14585     14587
     14584     14582     14585     14593     14585     14587     14588     14589
     14585     14587     14588     14590     14585     14593     14596     14597
     14586     14585     14587     14588     14586     14585     14593     14594
     14586     14585     14593     14595     14586     14585     14593     14596
     14587     14585     14593     14594     14587     14585     14593     14595
     14587     14585     14593     14596     14587     14588     14590     14591
     14587     14588     14590     14592     14587     14588     14590     14602
     14588     14587     14585     14593     14588     14590     14602     14603
     14588     14590     14602     14604     14588     14590     14602     14605
     14589     14588     14590     14591     14589     14588     14590     14592
     14589     14588     14590     14602     14590     14602     14605     14606
     14590     14602     14605     14607     14590     14602     14605     14608
     14591     14590     14602     14603     14591     14590     14602     14604
     14591     14590     14602     14605     14592     14590     14602     14603
     14592     14590     14602     14604     14592     14590     14602     14605
     14593     14596     14597     14598     14593     14596     14597     14599
     14594     14593     14596     14597     14595     14593     14596     14597
     14596     14597     14599     14600     14596     14597     14599     14601
     14596     14597     14599     14649     14597     14599     14649     14650
     14597     14599     14649     14651     14597     14599     14649     14652
     14598     14597     14599     14600     14598     14597     14599     14601
     14598     14597     14599     14649     14599     14649     14652     14653
     14599     14649     14652     14654     14599     14649     14652     14655
     14600     14599     14649     14650     14600     14599     14649     14651
     14600     14599     14649     14652     14601     14599     14649     14650
     14601     14599     14649     14651     14601     14599     14649     14652
     14602     14605     14608     14609     14602     14605     14608     14610
     14602     14605     14608     14611     14603     14602     14605     14606
     14603     14602     14605     14607     14603     14602     14605     14608
     14604     14602     14605     14606     14604     14602     14605     14607
     14604     14602     14605     14608     14605     14608     14611     14612
     14605     14608     14611     14613     14605     14608     14611     14614
     14606     14605     14608     14609     14606     14605     14608     14610
     14606     14605     14608     14611     14607     14605     14608     14609
     14607     14605     14608     14610     14607     14605     14608     14611
     14608     14611     14614     14615     14608     14611     14614     14616
     14608     14611     14614     14617     14609     14608     14611     14612
     14609     14608     14611     14613     14609     14608     14611     14614
     14610     14608     14611     14612     14610     14608     14611     14613
     14610     14608     14611     14614     14611     14614     14617     14618
     14611     14614     14617     14619     14611     14614     14617     14620
     14612     14611     14614     14615     14612     14611     14614     14616
     14612     14611     14614     14617     14613     14611     14614     14615
     14613     14611     14614     14616     14613     14611     14614     14617
     14614     14617     14620     14621     14614     14617     14620     14622
     14615     14614     14617     14618     14615     14614     14617     14619
     14615     14614     14617     14620     14616     14614     14617     14618
     14616     14614     14617     14619     14616     14614     14617     14620
     14617     14620     14622     14623     14617     14620     14622     14624
     14618     14617     14620     14621     14618     14617     14620     14622
     14619     14617     14620     14621     14619     14617     14620     14622
     14620     14622     14624     14625     14620     14622     14624     14626
     14620     14622     14624     14627     14621     14620     14622     14623
     14621     14620     14622     14624     14622     14624     14627     14628
     14622     14624     14627     14629     14622     14624     14627     14630
     14623     14622     14624     14625     14623     14622     14624     14626
     14623     14622     14624     14627     14624     14627     14630     14631
     14624     14627     14630     14632     14624     14627     14630     14633
     14625     14624     14627     14628     14625     14624     14627     14629
     14625     14624     14627     14630     14626     14624     14627     14628
     14626     14624     14627     14629     14626     14624     14627     14630
     14627     14630     14633     14634     14627     14630     14633     14635
     14627     14630     14633     14636     14628     14627     14630     14631
     14628     14627     14630     14632     14628     14627     14630     14633
     14629     14627     14630     14631     14629     14627     14630     14632
     14629     14627     14630     14633     14630     14633     14636     14637
     14630     14633     14636     14638     14630     14633     14636     14639
     14631     14630     14633     14634     14631     14630     14633     14635
     14631     14630     14633     14636     14632     14630     14633     14634
     14632     14630     14633     14635     14632     14630     14633     14636
     14633     14636     14639     14640     14633     14636     14639     14641
     14633     14636     14639     14642     14634     14633     14636     14637
     14634     14633     14636     14638     14634     14633     14636     14639
     14635     14633     14636     14637     14635     14633     14636     14638
     14635     14633     14636     14639     14636     14639     14642     14643
     14636     14639     14642     14644     14636     14639     14642     14645
     14637     14636     14639     14640     14637     14636     14639     14641
     14637     14636     14639     14642     14638     14636     14639     14640
     14638     14636     14639     14641     14638     14636     14639     14642
     14639     14642     14645     14646     14639     14642     14645     14647
     14639     14642     14645     14648     14640     14639     14642     14643
     14640     14639     14642     14644     14640     14639     14642     14645
     14641     14639     14642     14643     14641     14639     14642     14644
     14641     14639     14642     14645     14643     14642     14645     14646
     14643     14642     14645     14647     14643     14642     14645     14648
     14644     14642     14645     14646     14644     14642     14645     14647
     14644     14642     14645     14648     14649     14652     14655     14656
     14649     14652     14655     14657     14649     14652     14655     14658
     14650     14649     14652     14653     14650     14649     14652     14654
     14650     14649     14652     14655     14651     14649     14652     14653
     14651     14649     14652     14654     14651     14649     14652     14655
     14652     14655     14658     14659     14652     14655     14658     14660
     14652     14655     14658     14661     14653     14652     14655     14656
     14653     14652     14655     14657     14653     14652     14655     14658
     14654     14652     14655     14656     14654     14652     14655     14657
     14654     14652     14655     14658     14655     14658     14661     14662
     14655     14658     14661     14663     14655     14658     14661     14664
     14656     14655     14658     14659     14656     14655     14658     14660
     14656     14655     14658     14661     14657     14655     14658     14659
     14657     14655     14658     14660     14657     14655     14658     14661
     14658     14661     14664     14665     14658     14661     14664     14666
     14658     14661     14664     14667     14659     14658     14661     14662
     14659     14658     14661     14663     14659     14658     14661     14664
     14660     14658     14661     14662     14660     14658     14661     14663
     14660     14658     14661     14664     14661     14664     14667     14668
     14661     14664     14667     14669     14661     14664     14667     14670
     14662     14661     14664     14665     14662     14661     14664     14666
     14662     14661     14664     14667     14663     14661     14664     14665
     14663     14661     14664     14666     14663     14661     14664     14667
     14664     14667     14670     14671     14664     14667     14670     14672
     14664     14667     14670     14673     14665     14664     14667     14668
     14665     14664     14667     14669     14665     14664     14667     14670
     14666     14664     14667     14668     14666     14664     14667     14669
     14666     14664     14667     14670     14667     14670     14673     14674
     14667     14670     14673     14675     14667     14670     14673     14676
     14668     14667     14670     14671     14668     14667     14670     14672
     14668     14667     14670     14673     14669     14667     14670     14671
     14669     14667     14670     14672     14669     14667     14670     14673
     14670     14673     14676     14677     14670     14673     14676     14678
     14670     14673     14676     14679     14671     14670     14673     14674
     14671     14670     14673     14675     14671     14670     14673     14676
     14672     14670     14673     14674     14672     14670     14673     14675
     14672     14670     14673     14676     14673     14676     14679     14680
     14673     14676     14679     14681     14673     14676     14679     14682
     14674     14673     14676     14677     14674     14673     14676     14678
     14674     14673     14676     14679     14675     14673     14676     14677
     14675     14673     14676     14678     14675     14673     14676     14679
     14676     14679     14682     14683     14676     14679     14682     14684
     14676     14679     14682     14685     14677     14676     14679     14680
     14677     14676     14679     14681     14677     14676     14679     14682
     14678     14676     14679     14680     14678     14676     14679     14681
     14678     14676     14679     14682     14679     14682     14685     14686
     14679     14682     14685     14687     14679     14682     14685     14688
     14680     14679     14682     14683     14680     14679     14682     14684
     14680     14679     14682     14685     14681     14679     14682     14683
     14681     14679     14682     14684     14681     14679     14682     14685
     14682     14685     14688     14689     14682     14685     14688     14690
     14682     14685     14688     14691     14683     14682     14685     14686
     14683     14682     14685     14687     14683     14682     14685     14688
     14684     14682     14685     14686     14684     14682     14685     14687
     14684     14682     14685     14688     14686     14685     14688     14689
     14686     14685     14688     14690     14686     14685     14688     14691
     14687     14685     14688     14689     14687     14685     14688     14690
     14687     14685     14688     14691     14692     14696     14698     14699
     14692     14696     14698     14700     14692     14696     14701     14702
     14692     14696     14701     14703     14692     14696     14701     14707
     14693     14692     14696     14697     14693     14692     14696     14698
     14693     14692     14696     14701     14694     14692     14696     14697
     14694     14692     14696     14698     14694     14692     14696     14701
     14695     14692     14696     14697     14695     14692     14696     14698
     14695     14692     14696     14701     14696     14701     14707     14704
     14697     14696     14698     14699     14697     14696     14698     14700
     14697     14696     14701     14702     14697     14696     14701     14703
     14697     14696     14701     14707     14698     14696     14701     14702
     14698     14696     14701     14703     14698     14696     14701     14707
     14699     14698     14696     14701     14700     14698     14696     14701
     14701     14707     14704     14705     14701     14707     14704     14706
     14701     14707     14704     14708     14702     14701     14707     14704
     14703     14701     14707     14704     14704     14708     14709     14710
     14704     14708     14709     14711     14704     14708     14709     14712
     14705     14704     14708     14709     14706     14704     14708     14709
     14707     14704     14708     14709     14708     14709     14712     14713
     14708     14709     14712     14714     14708     14709     14712     14720
     14709     14712     14714     14715     14709     14712     14720     14721
     14709     14712     14720     14722     14709     14712     14720     14723
     14710     14709     14712     14713     14710     14709     14712     14714
     14710     14709     14712     14720     14711     14709     14712     14713
     14711     14709     14712     14714     14711     14709     14712     14720
     14712     14714     14715     14716     14712     14714     14715     14717
     14712     14720     14723     14724     14713     14712     14714     14715
     14713     14712     14720     14721     14713     14712     14720     14722
     14713     14712     14720     14723     14714     14712     14720     14721
     14714     14712     14720     14722     14714     14712     14720     14723
     14714     14715     14717     14718     14714     14715     14717     14719
     14714     14715     14717     14729     14715     14714     14712     14720
     14715     14717     14729     14730     14715     14717     14729     14731
     14715     14717     14729     14732     14716     14715     14717     14718
     14716     14715     14717     14719     14716     14715     14717     14729
     14717     14729     14732     14733     14717     14729     14732     14734
     14717     14729     14732     14735     14718     14717     14729     14730
     14718     14717     14729     14731     14718     14717     14729     14732
     14719     14717     14729     14730     14719     14717     14729     14731
     14719     14717     14729     14732     14720     14723     14724     14725
     14720     14723     14724     14726     14721     14720     14723     14724
     14722     14720     14723     14724     14723     14724     14726     14727
     14723     14724     14726     14728     14723     14724     14726     14776
     14724     14726     14776     14777     14724     14726     14776     14778
     14724     14726     14776     14779     14725     14724     14726     14727
     14725     14724     14726     14728     14725     14724     14726     14776
     14726     14776     14779     14780     14726     14776     14779     14781
     14726     14776     14779     14782     14727     14726     14776     14777
     14727     14726     14776     14778     14727     14726     14776     14779
     14728     14726     14776     14777     14728     14726     14776     14778
     14728     14726     14776     14779     14729     14732     14735     14736
     14729     14732     14735     14737     14729     14732     14735     14738
     14730     14729     14732     14733     14730     14729     14732     14734
     14730     14729     14732     14735     14731     14729     14732     14733
     14731     14729     14732     14734     14731     14729     14732     14735
     14732     14735     14738     14739     14732     14735     14738     14740
     14732     14735     14738     14741     14733     14732     14735     14736
     14733     14732     14735     14737     14733     14732     14735     14738
     14734     14732     14735     14736     14734     14732     14735     14737
     14734     14732     14735     14738     14735     14738     14741     14742
     14735     14738     14741     14743     14735     14738     14741     14744
     14736     14735     14738     14739     14736     14735     14738     14740
     14736     14735     14738     14741     14737     14735     14738     14739
     14737     14735     14738     14740     14737     14735     14738     14741
     14738     14741     14744     14745     14738     14741     14744     14746
     14738     14741     14744     14747     14739     14738     14741     14742
     14739     14738     14741     14743     14739     14738     14741     14744
     14740     14738     14741     14742     14740     14738     14741     14743
     14740     14738     14741     14744     14741     14744     14747     14748
     14741     14744     14747     14749     14742     14741     14744     14745
     14742     14741     14744     14746     14742     14741     14744     14747
     14743     14741     14744     14745     14743     14741     14744     14746
     14743     14741     14744     14747     14744     14747     14749     14750
     14744     14747     14749     14751     14745     14744     14747     14748
     14745     14744     14747     14749     14746     14744     14747     14748
     14746     14744     14747     14749     14747     14749     14751     14752
     14747     14749     14751     14753     14747     14749     14751     14754
     14748     14747     14749     14750     14748     14747     14749     14751
     14749     14751     14754     14755     14749     14751     14754     14756
     14749     14751     14754     14757     14750     14749     14751     14752
     14750     14749     14751     14753     14750     14749     14751     14754
     14751     14754     14757     14758     14751     14754     14757     14759
     14751     14754     14757     14760     14752     14751     14754     14755
     14752     14751     14754     14756     14752     14751     14754     14757
     14753     14751     14754     14755     14753     14751     14754     14756
     14753     14751     14754     14757     14754     14757     14760     14761
     14754     14757     14760     14762     14754     14757     14760     14763
     14755     14754     14757     14758     14755     14754     14757     14759
     14755     14754     14757     14760     14756     14754     14757     14758
     14756     14754     14757     14759     14756     14754     14757     14760
     14757     14760     14763     14764     14757     14760     14763     14765
     14757     14760     14763     14766     14758     14757     14760     14761
     14758     14757     14760     14762     14758     14757     14760     14763
     14759     14757     14760     14761     14759     14757     14760     14762
     14759     14757     14760     14763     14760     14763     14766     14767
     14760     14763     14766     14768     14760     14763     14766     14769
     14761     14760     14763     14764     14761     14760     14763     14765
     14761     14760     14763     14766     14762     14760     14763     14764
     14762     14760     14763     14765     14762     14760     14763     14766
     14763     14766     14769     14770     14763     14766     14769     14771
     14763     14766     14769     14772     14764     14763     14766     14767
     14764     14763     14766     14768     14764     14763     14766     14769
     14765     14763     14766     14767     14765     14763     14766     14768
     14765     14763     14766     14769     14766     14769     14772     14773
     14766     14769     14772     14774     14766     14769     14772     14775
     14767     14766     14769     14770     14767     14766     14769     14771
     14767     14766     14769     14772     14768     14766     14769     14770
     14768     14766     14769     14771     14768     14766     14769     14772
     14770     14769     14772     14773     14770     14769     14772     14774
     14770     14769     14772     14775     14771     14769     14772     14773
     14771     14769     14772     14774     14771     14769     14772     14775
     14776     14779     14782     14783     14776     14779     14782     14784
     14776     14779     14782     14785     14777     14776     14779     14780
     14777     14776     14779     14781     14777     14776     14779     14782
     14778     14776     14779     14780     14778     14776     14779     14781
     14778     14776     14779     14782     14779     14782     14785     14786
     14779     14782     14785     14787     14779     14782     14785     14788
     14780     14779     14782     14783     14780     14779     14782     14784
     14780     14779     14782     14785     14781     14779     14782     14783
     14781     14779     14782     14784     14781     14779     14782     14785
     14782     14785     14788     14789     14782     14785     14788     14790
     14782     14785     14788     14791     14783     14782     14785     14786
     14783     14782     14785     14787     14783     14782     14785     14788
     14784     14782     14785     14786     14784     14782     14785     14787
     14784     14782     14785     14788     14785     14788     14791     14792
     14785     14788     14791     14793     14785     14788     14791     14794
     14786     14785     14788     14789     14786     14785     14788     14790
     14786     14785     14788     14791     14787     14785     14788     14789
     14787     14785     14788     14790     14787     14785     14788     14791
     14788     14791     14794     14795     14788     14791     14794     14796
     14788     14791     14794     14797     14789     14788     14791     14792
     14789     14788     14791     14793     14789     14788     14791     14794
     14790     14788     14791     14792     14790     14788     14791     14793
     14790     14788     14791     14794     14791     14794     14797     14798
     14791     14794     14797     14799     14791     14794     14797     14800
     14792     14791     14794     14795     14792     14791     14794     14796
     14792     14791     14794     14797     14793     14791     14794     14795
     14793     14791     14794     14796     14793     14791     14794     14797
     14794     14797     14800     14801     14794     14797     14800     14802
     14794     14797     14800     14803     14795     14794     14797     14798
     14795     14794     14797     14799     14795     14794     14797     14800
     14796     14794     14797     14798     14796     14794     14797     14799
     14796     14794     14797     14800     14797     14800     14803     14804
     14797     14800     14803     14805     14797     14800     14803     14806
     14798     14797     14800     14801     14798     14797     14800     14802
     14798     14797     14800     14803     14799     14797     14800     14801
     14799     14797     14800     14802     14799     14797     14800     14803
     14800     14803     14806     14807     14800     14803     14806     14808
     14800     14803     14806     14809     14801     14800     14803     14804
     14801     14800     14803     14805     14801     14800     14803     14806
     14802     14800     14803     14804     14802     14800     14803     14805
     14802     14800     14803     14806     14803     14806     14809     14810
     14803     14806     14809     14811     14803     14806     14809     14812
     14804     14803     14806     14807     14804     14803     14806     14808
     14804     14803     14806     14809     14805     14803     14806     14807
     14805     14803     14806     14808     14805     14803     14806     14809
     14806     14809     14812     14813     14806     14809     14812     14814
     14806     14809     14812     14815     14807     14806     14809     14810
     14807     14806     14809     14811     14807     14806     14809     14812
     14808     14806     14809     14810     14808     14806     14809     14811
     14808     14806     14809     14812     14809     14812     14815     14816
     14809     14812     14815     14817     14809     14812     14815     14818
     14810     14809     14812     14813     14810     14809     14812     14814
     14810     14809     14812     14815     14811     14809     14812     14813
     14811     14809     14812     14814     14811     14809     14812     14815
     14813     14812     14815     14816     14813     14812     14815     14817
     14813     14812     14815     14818     14814     14812     14815     14816
     14814     14812     14815     14817     14814     14812     14815     14818
     14819     14820     14835     14836     14819     14820     14835     14837
     14819     14820     14835     14841     14820     14819     14823     14824
     14820     14819     14823     14825     14820     14819     14823     14826
     14820     14819     14827     14828     14820     14819     14827     14829
     14820     14819     14827     14830     14820     14819     14831     14832
     14820     14819     14831     14833     14820     14819     14831     14834
     14820     14835     14841     14838     14821     14820     14819     14823
     14821     14820     14819     14827     14821     14820     14819     14831
     14821     14820     14835     14836     14821     14820     14835     14837
     14821     14820     14835     14841     14822     14820     14819     14823
     14822     14820     14819     14827     14822     14820     14819     14831
     14822     14820     14835     14836     14822     14820     14835     14837
     14822     14820     14835     14841     14823     14819     14820     14835
     14823     14819     14827     14828     14823     14819     14827     14829
     14823     14819     14827     14830     14823     14819     14831     14832
     14823     14819     14831     14833     14823     14819     14831     14834
     14824     14823     14819     14827     14824     14823     14819     14831
     14825     14823     14819     14827     14825     14823     14819     14831
     14826     14823     14819     14827     14826     14823     14819     14831
     14827     14819     14820     14835     14827     14819     14831     14832
     14827     14819     14831     14833     14827     14819     14831     14834
     14828     14827     14819     14831     14829     14827     14819     14831
     14830     14827     14819     14831     14831     14819     14820     14835
     14835     14841     14838     14839     14835     14841     14838     14840
     14835     14841     14838     14842     14836     14835     14841     14838
     14837     14835     14841     14838     14838     14842     14843     14844
     14838     14842     14843     14845     14838     14842     14843     14846
     14839     14838     14842     14843     14840     14838     14842     14843
     14841     14838     14842     14843     14842     14843     14846     14847
     14842     14843     14846     14848     14842     14843     14846     14854
     14843     14846     14848     14849     14843     14846     14854     14855
     14843     14846     14854     14856     14843     14846     14854     14857
     14844     14843     14846     14847     14844     14843     14846     14848
     14844     14843     14846     14854     14845     14843     14846     14847
     14845     14843     14846     14848     14845     14843     14846     14854
     14846     14848     14849     14850     14846     14848     14849     14851
     14846     14854     14857     14858     14847     14846     14848     14849
     14847     14846     14854     14855     14847     14846     14854     14856
     14847     14846     14854     14857     14848     14846     14854     14855
     14848     14846     14854     14856     14848     14846     14854     14857
     14848     14849     14851     14852     14848     14849     14851     14853
     14848     14849     14851     14863     14849     14848     14846     14854
     14849     14851     14863     14864     14849     14851     14863     14865
     14849     14851     14863     14866     14850     14849     14851     14852
     14850     14849     14851     14853     14850     14849     14851     14863
     14851     14863     14866     14867     14851     14863     14866     14868
     14851     14863     14866     14869     14852     14851     14863     14864
     14852     14851     14863     14865     14852     14851     14863     14866
     14853     14851     14863     14864     14853     14851     14863     14865
     14853     14851     14863     14866     14854     14857     14858     14859
     14854     14857     14858     14860     14855     14854     14857     14858
     14856     14854     14857     14858     14857     14858     14860     14861
     14857     14858     14860     14862     14857     14858     14860     14910
     14858     14860     14910     14911     14858     14860     14910     14912
     14858     14860     14910     14913     14859     14858     14860     14861
     14859     14858     14860     14862     14859     14858     14860     14910
     14860     14910     14913     14914     14860     14910     14913     14915
     14860     14910     14913     14916     14861     14860     14910     14911
     14861     14860     14910     14912     14861     14860     14910     14913
     14862     14860     14910     14911     14862     14860     14910     14912
     14862     14860     14910     14913     14863     14866     14869     14870
     14863     14866     14869     14871     14863     14866     14869     14872
     14864     14863     14866     14867     14864     14863     14866     14868
     14864     14863     14866     14869     14865     14863     14866     14867
     14865     14863     14866     14868     14865     14863     14866     14869
     14866     14869     14872     14873     14866     14869     14872     14874
     14866     14869     14872     14875     14867     14866     14869     14870
     14867     14866     14869     14871     14867     14866     14869     14872
     14868     14866     14869     14870     14868     14866     14869     14871
     14868     14866     14869     14872     14869     14872     14875     14876
     14869     14872     14875     14877     14869     14872     14875     14878
     14870     14869     14872     14873     14870     14869     14872     14874
     14870     14869     14872     14875     14871     14869     14872     14873
     14871     14869     14872     14874     14871     14869     14872     14875
     14872     14875     14878     14879     14872     14875     14878     14880
     14872     14875     14878     14881     14873     14872     14875     14876
     14873     14872     14875     14877     14873     14872     14875     14878
     14874     14872     14875     14876     14874     14872     14875     14877
     14874     14872     14875     14878     14875     14878     14881     14882
     14875     14878     14881     14883     14876     14875     14878     14879
     14876     14875     14878     14880     14876     14875     14878     14881
     14877     14875     14878     14879     14877     14875     14878     14880
     14877     14875     14878     14881     14878     14881     14883     14884
     14878     14881     14883     14885     14879     14878     14881     14882
     14879     14878     14881     14883     14880     14878     14881     14882
     14880     14878     14881     14883     14881     14883     14885     14886
     14881     14883     14885     14887     14881     14883     14885     14888
     14882     14881     14883     14884     14882     14881     14883     14885
     14883     14885     14888     14889     14883     14885     14888     14890
     14883     14885     14888     14891     14884     14883     14885     14886
     14884     14883     14885     14887     14884     14883     14885     14888
     14885     14888     14891     14892     14885     14888     14891     14893
     14885     14888     14891     14894     14886     14885     14888     14889
     14886     14885     14888     14890     14886     14885     14888     14891
     14887     14885     14888     14889     14887     14885     14888     14890
     14887     14885     14888     14891     14888     14891     14894     14895
     14888     14891     14894     14896     14888     14891     14894     14897
     14889     14888     14891     14892     14889     14888     14891     14893
     14889     14888     14891     14894     14890     14888     14891     14892
     14890     14888     14891     14893     14890     14888     14891     14894
     14891     14894     14897     14898     14891     14894     14897     14899
     14891     14894     14897     14900     14892     14891     14894     14895
     14892     14891     14894     14896     14892     14891     14894     14897
     14893     14891     14894     14895     14893     14891     14894     14896
     14893     14891     14894     14897     14894     14897     14900     14901
     14894     14897     14900     14902     14894     14897     14900     14903
     14895     14894     14897     14898     14895     14894     14897     14899
     14895     14894     14897     14900     14896     14894     14897     14898
     14896     14894     14897     14899     14896     14894     14897     14900
     14897     14900     14903     14904     14897     14900     14903     14905
     14897     14900     14903     14906     14898     14897     14900     14901
     14898     14897     14900     14902     14898     14897     14900     14903
     14899     14897     14900     14901     14899     14897     14900     14902
     14899     14897     14900     14903     14900     14903     14906     14907
     14900     14903     14906     14908     14900     14903     14906     14909
     14901     14900     14903     14904     14901     14900     14903     14905
     14901     14900     14903     14906     14902     14900     14903     14904
     14902     14900     14903     14905     14902     14900     14903     14906
     14904     14903     14906     14907     14904     14903     14906     14908
     14904     14903     14906     14909     14905     14903     14906     14907
     14905     14903     14906     14908     14905     14903     14906     14909
     14910     14913     14916     14917     14910     14913     14916     14918
     14910     14913     14916     14919     14911     14910     14913     14914
     14911     14910     14913     14915     14911     14910     14913     14916
     14912     14910     14913     14914     14912     14910     14913     14915
     14912     14910     14913     14916     14913     14916     14919     14920
     14913     14916     14919     14921     14913     14916     14919     14922
     14914     14913     14916     14917     14914     14913     14916     14918
     14914     14913     14916     14919     14915     14913     14916     14917
     14915     14913     14916     14918     14915     14913     14916     14919
     14916     14919     14922     14923     14916     14919     14922     14924
     14916     14919     14922     14925     14917     14916     14919     14920
     14917     14916     14919     14921     14917     14916     14919     14922
     14918     14916     14919     14920     14918     14916     14919     14921
     14918     14916     14919     14922     14919     14922     14925     14926
     14919     14922     14925     14927     14919     14922     14925     14928
     14920     14919     14922     14923     14920     14919     14922     14924
     14920     14919     14922     14925     14921     14919     14922     14923
     14921     14919     14922     14924     14921     14919     14922     14925
     14922     14925     14928     14929     14922     14925     14928     14930
     14922     14925     14928     14931     14923     14922     14925     14926
     14923     14922     14925     14927     14923     14922     14925     14928
     14924     14922     14925     14926     14924     14922     14925     14927
     14924     14922     14925     14928     14925     14928     14931     14932
     14925     14928     14931     14933     14925     14928     14931     14934
     14926     14925     14928     14929     14926     14925     14928     14930
     14926     14925     14928     14931     14927     14925     14928     14929
     14927     14925     14928     14930     14927     14925     14928     14931
     14928     14931     14934     14935     14928     14931     14934     14936
     14928     14931     14934     14937     14929     14928     14931     14932
     14929     14928     14931     14933     14929     14928     14931     14934
     14930     14928     14931     14932     14930     14928     14931     14933
     14930     14928     14931     14934     14931     14934     14937     14938
     14931     14934     14937     14939     14931     14934     14937     14940
     14932     14931     14934     14935     14932     14931     14934     14936
     14932     14931     14934     14937     14933     14931     14934     14935
     14933     14931     14934     14936     14933     14931     14934     14937
     14934     14937     14940     14941     14934     14937     14940     14942
     14934     14937     14940     14943     14935     14934     14937     14938
     14935     14934     14937     14939     14935     14934     14937     14940
     14936     14934     14937     14938     14936     14934     14937     14939
     14936     14934     14937     14940     14937     14940     14943     14944
     14937     14940     14943     14945     14937     14940     14943     14946
     14938     14937     14940     14941     14938     14937     14940     14942
     14938     14937     14940     14943     14939     14937     14940     14941
     14939     14937     14940     14942     14939     14937     14940     14943
     14940     14943     14946     14947     14940     14943     14946     14948
     14940     14943     14946     14949     14941     14940     14943     14944
     14941     14940     14943     14945     14941     14940     14943     14946
     14942     14940     14943     14944     14942     14940     14943     14945
     14942     14940     14943     14946     14943     14946     14949     14950
     14943     14946     14949     14951     14943     14946     14949     14952
     14944     14943     14946     14947     14944     14943     14946     14948
     14944     14943     14946     14949     14945     14943     14946     14947
     14945     14943     14946     14948     14945     14943     14946     14949
     14947     14946     14949     14950     14947     14946     14949     14951
     14947     14946     14949     14952     14948     14946     14949     14950
     14948     14946     14949     14951     14948     14946     14949     14952
     14953     14954     14969     14970     14953     14954     14969     14971
     14953     14954     14969     14975     14954     14953     14957     14958
     14954     14953     14957     14959     14954     14953     14957     14960
     14954     14953     14961     14962     14954     14953     14961     14963
     14954     14953     14961     14964     14954     14953     14965     14966
     14954     14953     14965     14967     14954     14953     14965     14968
     14954     14969     14975     14972     14955     14954     14953     14957
     14955     14954     14953     14961     14955     14954     14953     14965
     14955     14954     14969     14970     14955     14954     14969     14971
     14955     14954     14969     14975     14956     14954     14953     14957
     14956     14954     14953     14961     14956     14954     14953     14965
     14956     14954     14969     14970     14956     14954     14969     14971
     14956     14954     14969     14975     14957     14953     14954     14969
     14957     14953     14961     14962     14957     14953     14961     14963
     14957     14953     14961     14964     14957     14953     14965     14966
     14957     14953     14965     14967     14957     14953     14965     14968
     14958     14957     14953     14961     14958     14957     14953     14965
     14959     14957     14953     14961     14959     14957     14953     14965
     14960     14957     14953     14961     14960     14957     14953     14965
     14961     14953     14954     14969     14961     14953     14965     14966
     14961     14953     14965     14967     14961     14953     14965     14968
     14962     14961     14953     14965     14963     14961     14953     14965
     14964     14961     14953     14965     14965     14953     14954     14969
     14969     14975     14972     14973     14969     14975     14972     14974
     14969     14975     14972     14976     14970     14969     14975     14972
     14971     14969     14975     14972     14972     14976     14977     14978
     14972     14976     14977     14979     14972     14976     14977     14980
     14973     14972     14976     14977     14974     14972     14976     14977
     14975     14972     14976     14977     14976     14977     14980     14981
     14976     14977     14980     14982     14976     14977     14980     14988
     14977     14980     14982     14983     14977     14980     14988     14989
     14977     14980     14988     14990     14977     14980     14988     14991
     14978     14977     14980     14981     14978     14977     14980     14982
     14978     14977     14980     14988     14979     14977     14980     14981
     14979     14977     14980     14982     14979     14977     14980     14988
     14980     14982     14983     14984     14980     14982     14983     14985
     14980     14988     14991     14992     14981     14980     14982     14983
     14981     14980     14988     14989     14981     14980     14988     14990
     14981     14980     14988     14991     14982     14980     14988     14989
     14982     14980     14988     14990     14982     14980     14988     14991
     14982     14983     14985     14986     14982     14983     14985     14987
     14982     14983     14985     14997     14983     14982     14980     14988
     14983     14985     14997     14998     14983     14985     14997     14999
     14983     14985     14997     15000     14984     14983     14985     14986
     14984     14983     14985     14987     14984     14983     14985     14997
     14985     14997     15000     15001     14985     14997     15000     15002
     14985     14997     15000     15003     14986     14985     14997     14998
     14986     14985     14997     14999     14986     14985     14997     15000
     14987     14985     14997     14998     14987     14985     14997     14999
     14987     14985     14997     15000     14988     14991     14992     14993
     14988     14991     14992     14994     14989     14988     14991     14992
     14990     14988     14991     14992     14991     14992     14994     14995
     14991     14992     14994     14996     14991     14992     14994     15044
     14992     14994     15044     15045     14992     14994     15044     15046
     14992     14994     15044     15047     14993     14992     14994     14995
     14993     14992     14994     14996     14993     14992     14994     15044
     14994     15044     15047     15048     14994     15044     15047     15049
     14994     15044     15047     15050     14995     14994     15044     15045
     14995     14994     15044     15046     14995     14994     15044     15047
     14996     14994     15044     15045     14996     14994     15044     15046
     14996     14994     15044     15047     14997     15000     15003     15004
     14997     15000     15003     15005     14997     15000     15003     15006
     14998     14997     15000     15001     14998     14997     15000     15002
     14998     14997     15000     15003     14999     14997     15000     15001
     14999     14997     15000     15002     14999     14997     15000     15003
     15000     15003     15006     15007     15000     15003     15006     15008
     15000     15003     15006     15009     15001     15000     15003     15004
     15001     15000     15003     15005     15001     15000     15003     15006
     15002     15000     15003     15004     15002     15000     15003     15005
     15002     15000     15003     15006     15003     15006     15009     15010
     15003     15006     15009     15011     15003     15006     15009     15012
     15004     15003     15006     15007     15004     15003     15006     15008
     15004     15003     15006     15009     15005     15003     15006     15007
     15005     15003     15006     15008     15005     15003     15006     15009
     15006     15009     15012     15013     15006     15009     15012     15014
     15006     15009     15012     15015     15007     15006     15009     15010
     15007     15006     15009     15011     15007     15006     15009     15012
     15008     15006     15009     15010     15008     15006     15009     15011
     15008     15006     15009     15012     15009     15012     15015     15016
     15009     15012     15015     15017     15010     15009     15012     15013
     15010     15009     15012     15014     15010     15009     15012     15015
     15011     15009     15012     15013     15011     15009     15012     15014
     15011     15009     15012     15015     15012     15015     15017     15018
     15012     15015     15017     15019     15013     15012     15015     15016
     15013     15012     15015     15017     15014     15012     15015     15016
     15014     15012     15015     15017     15015     15017     15019     15020
     15015     15017     15019     15021     15015     15017     15019     15022
     15016     15015     15017     15018     15016     15015     15017     15019
     15017     15019     15022     15023     15017     15019     15022     15024
     15017     15019     15022     15025     15018     15017     15019     15020
     15018     15017     15019     15021     15018     15017     15019     15022
     15019     15022     15025     15026     15019     15022     15025     15027
     15019     15022     15025     15028     15020     15019     15022     15023
     15020     15019     15022     15024     15020     15019     15022     15025
     15021     15019     15022     15023     15021     15019     15022     15024
     15021     15019     15022     15025     15022     15025     15028     15029
     15022     15025     15028     15030     15022     15025     15028     15031
     15023     15022     15025     15026     15023     15022     15025     15027
     15023     15022     15025     15028     15024     15022     15025     15026
     15024     15022     15025     15027     15024     15022     15025     15028
     15025     15028     15031     15032     15025     15028     15031     15033
     15025     15028     15031     15034     15026     15025     15028     15029
     15026     15025     15028     15030     15026     15025     15028     15031
     15027     15025     15028     15029     15027     15025     15028     15030
     15027     15025     15028     15031     15028     15031     15034     15035
     15028     15031     15034     15036     15028     15031     15034     15037
     15029     15028     15031     15032     15029     15028     15031     15033
     15029     15028     15031     15034     15030     15028     15031     15032
     15030     15028     15031     15033     15030     15028     15031     15034
     15031     15034     15037     15038     15031     15034     15037     15039
     15031     15034     15037     15040     15032     15031     15034     15035
     15032     15031     15034     15036     15032     15031     15034     15037
     15033     15031     15034     15035     15033     15031     15034     15036
     15033     15031     15034     15037     15034     15037     15040     15041
     15034     15037     15040     15042     15034     15037     15040     15043
     15035     15034     15037     15038     15035     15034     15037     15039
     15035     15034     15037     15040     15036     15034     15037     15038
     15036     15034     15037     15039     15036     15034     15037     15040
     15038     15037     15040     15041     15038     15037     15040     15042
     15038     15037     15040     15043     15039     15037     15040     15041
     15039     15037     15040     15042     15039     15037     15040     15043
     15044     15047     15050     15051     15044     15047     15050     15052
     15044     15047     15050     15053     15045     15044     15047     15048
     15045     15044     15047     15049     15045     15044     15047     15050
     15046     15044     15047     15048     15046     15044     15047     15049
     15046     15044     15047     15050     15047     15050     15053     15054
     15047     15050     15053     15055     15047     15050     15053     15056
     15048     15047     15050     15051     15048     15047     15050     15052
     15048     15047     15050     15053     15049     15047     15050     15051
     15049     15047     15050     15052     15049     15047     15050     15053
     15050     15053     15056     15057     15050     15053     15056     15058
     15050     15053     15056     15059     15051     15050     15053     15054
     15051     15050     15053     15055     15051     15050     15053     15056
     15052     15050     15053     15054     15052     15050     15053     15055
     15052     15050     15053     15056     15053     15056     15059     15060
     15053     15056     15059     15061     15053     15056     15059     15062
     15054     15053     15056     15057     15054     15053     15056     15058
     15054     15053     15056     15059     15055     15053     15056     15057
     15055     15053     15056     15058     15055     15053     15056     15059
     15056     15059     15062     15063     15056     15059     15062     15064
     15056     15059     15062     15065     15057     15056     15059     15060
     15057     15056     15059     15061     15057     15056     15059     15062
     15058     15056     15059     15060     15058     15056     15059     15061
     15058     15056     15059     15062     15059     15062     15065     15066
     15059     15062     15065     15067     15059     15062     15065     15068
     15060     15059     15062     15063     15060     15059     15062     15064
     15060     15059     15062     15065     15061     15059     15062     15063
     15061     15059     15062     15064     15061     15059     15062     15065
     15062     15065     15068     15069     15062     15065     15068     15070
     15062     15065     15068     15071     15063     15062     15065     15066
     15063     15062     15065     15067     15063     15062     15065     15068
     15064     15062     15065     15066     15064     15062     15065     15067
     15064     15062     15065     15068     15065     15068     15071     15072
     15065     15068     15071     15073     15065     15068     15071     15074
     15066     15065     15068     15069     15066     15065     15068     15070
     15066     15065     15068     15071     15067     15065     15068     15069
     15067     15065     15068     15070     15067     15065     15068     15071
     15068     15071     15074     15075     15068     15071     15074     15076
     15068     15071     15074     15077     15069     15068     15071     15072
     15069     15068     15071     15073     15069     15068     15071     15074
     15070     15068     15071     15072     15070     15068     15071     15073
     15070     15068     15071     15074     15071     15074     15077     15078
     15071     15074     15077     15079     15071     15074     15077     15080
     15072     15071     15074     15075     15072     15071     15074     15076
     15072     15071     15074     15077     15073     15071     15074     15075
     15073     15071     15074     15076     15073     15071     15074     15077
     15074     15077     15080     15081     15074     15077     15080     15082
     15074     15077     15080     15083     15075     15074     15077     15078
     15075     15074     15077     15079     15075     15074     15077     15080
     15076     15074     15077     15078     15076     15074     15077     15079
     15076     15074     15077     15080     15077     15080     15083     15084
     15077     15080     15083     15085     15077     15080     15083     15086
     15078     15077     15080     15081     15078     15077     15080     15082
     15078     15077     15080     15083     15079     15077     15080     15081
     15079     15077     15080     15082     15079     15077     15080     15083
     15081     15080     15083     15084     15081     15080     15083     15085
     15081     15080     15083     15086     15082     15080     15083     15084
     15082     15080     15083     15085     15082     15080     15083     15086
     15087     15091     15093     15094     15087     15091     15093     15095
     15087     15091     15096     15097     15087     15091     15096     15098
     15087     15091     15096     15102     15088     15087     15091     15092
     15088     15087     15091     15093     15088     15087     15091     15096
     15089     15087     15091     15092     15089     15087     15091     15093
     15089     15087     15091     15096     15090     15087     15091     15092
     15090     15087     15091     15093     15090     15087     15091     15096
     15091     15096     15102     15099     15092     15091     15093     15094
     15092     15091     15093     15095     15092     15091     15096     15097
     15092     15091     15096     15098     15092     15091     15096     15102
     15093     15091     15096     15097     15093     15091     15096     15098
     15093     15091     15096     15102     15094     15093     15091     15096
     15095     15093     15091     15096     15096     15102     15099     15100
     15096     15102     15099     15101     15096     15102     15099     15103
     15097     15096     15102     15099     15098     15096     15102     15099
     15099     15103     15104     15105     15099     15103     15104     15106
     15099     15103     15104     15107     15100     15099     15103     15104
     15101     15099     15103     15104     15102     15099     15103     15104
     15103     15104     15107     15108     15103     15104     15107     15109
     15103     15104     15107     15115     15104     15107     15109     15110
     15104     15107     15115     15116     15104     15107     15115     15117
     15104     15107     15115     15118     15105     15104     15107     15108
     15105     15104     15107     15109     15105     15104     15107     15115
     15106     15104     15107     15108     15106     15104     15107     15109
     15106     15104     15107     15115     15107     15109     15110     15111
     15107     15109     15110     15112     15107     15115     15118     15119
     15108     15107     15109     15110     15108     15107     15115     15116
     15108     15107     15115     15117     15108     15107     15115     15118
     15109     15107     15115     15116     15109     15107     15115     15117
     15109     15107     15115     15118     15109     15110     15112     15113
     15109     15110     15112     15114     15109     15110     15112     15124
     15110     15109     15107     15115     15110     15112     15124     15125
     15110     15112     15124     15126     15110     15112     15124     15127
     15111     15110     15112     15113     15111     15110     15112     15114
     15111     15110     15112     15124     15112     15124     15127     15128
     15112     15124     15127     15129     15112     15124     15127     15130
     15113     15112     15124     15125     15113     15112     15124     15126
     15113     15112     15124     15127     15114     15112     15124     15125
     15114     15112     15124     15126     15114     15112     15124     15127
     15115     15118     15119     15120     15115     15118     15119     15121
     15116     15115     15118     15119     15117     15115     15118     15119
     15118     15119     15121     15122     15118     15119     15121     15123
     15118     15119     15121     15171     15119     15121     15171     15172
     15119     15121     15171     15173     15119     15121     15171     15174
     15120     15119     15121     15122     15120     15119     15121     15123
     15120     15119     15121     15171     15121     15171     15174     15175
     15121     15171     15174     15176     15121     15171     15174     15177
     15122     15121     15171     15172     15122     15121     15171     15173
     15122     15121     15171     15174     15123     15121     15171     15172
     15123     15121     15171     15173     15123     15121     15171     15174
     15124     15127     15130     15131     15124     15127     15130     15132
     15124     15127     15130     15133     15125     15124     15127     15128
     15125     15124     15127     15129     15125     15124     15127     15130
     15126     15124     15127     15128     15126     15124     15127     15129
     15126     15124     15127     15130     15127     15130     15133     15134
     15127     15130     15133     15135     15127     15130     15133     15136
     15128     15127     15130     15131     15128     15127     15130     15132
     15128     15127     15130     15133     15129     15127     15130     15131
     15129     15127     15130     15132     15129     15127     15130     15133
     15130     15133     15136     15137     15130     15133     15136     15138
     15130     15133     15136     15139     15131     15130     15133     15134
     15131     15130     15133     15135     15131     15130     15133     15136
     15132     15130     15133     15134     15132     15130     15133     15135
     15132     15130     15133     15136     15133     15136     15139     15140
     15133     15136     15139     15141     15133     15136     15139     15142
     15134     15133     15136     15137     15134     15133     15136     15138
     15134     15133     15136     15139     15135     15133     15136     15137
     15135     15133     15136     15138     15135     15133     15136     15139
     15136     15139     15142     15143     15136     15139     15142     15144
     15137     15136     15139     15140     15137     15136     15139     15141
     15137     15136     15139     15142     15138     15136     15139     15140
     15138     15136     15139     15141     15138     15136     15139     15142
     15139     15142     15144     15145     15139     15142     15144     15146
     15140     15139     15142     15143     15140     15139     15142     15144
     15141     15139     15142     15143     15141     15139     15142     15144
     15142     15144     15146     15147     15142     15144     15146     15148
     15142     15144     15146     15149     15143     15142     15144     15145
     15143     15142     15144     15146     15144     15146     15149     15150
     15144     15146     15149     15151     15144     15146     15149     15152
     15145     15144     15146     15147     15145     15144     15146     15148
     15145     15144     15146     15149     15146     15149     15152     15153
     15146     15149     15152     15154     15146     15149     15152     15155
     15147     15146     15149     15150     15147     15146     15149     15151
     15147     15146     15149     15152     15148     15146     15149     15150
     15148     15146     15149     15151     15148     15146     15149     15152
     15149     15152     15155     15156     15149     15152     15155     15157
     15149     15152     15155     15158     15150     15149     15152     15153
     15150     15149     15152     15154     15150     15149     15152     15155
     15151     15149     15152     15153     15151     15149     15152     15154
     15151     15149     15152     15155     15152     15155     15158     15159
     15152     15155     15158     15160     15152     15155     15158     15161
     15153     15152     15155     15156     15153     15152     15155     15157
     15153     15152     15155     15158     15154     15152     15155     15156
     15154     15152     15155     15157     15154     15152     15155     15158
     15155     15158     15161     15162     15155     15158     15161     15163
     15155     15158     15161     15164     15156     15155     15158     15159
     15156     15155     15158     15160     15156     15155     15158     15161
     15157     15155     15158     15159     15157     15155     15158     15160
     15157     15155     15158     15161     15158     15161     15164     15165
     15158     15161     15164     15166     15158     15161     15164     15167
     15159     15158     15161     15162     15159     15158     15161     15163
     15159     15158     15161     15164     15160     15158     15161     15162
     15160     15158     15161     15163     15160     15158     15161     15164
     15161     15164     15167     15168     15161     15164     15167     15169
     15161     15164     15167     15170     15162     15161     15164     15165
     15162     15161     15164     15166     15162     15161     15164     15167
     15163     15161     15164     15165     15163     15161     15164     15166
     15163     15161     15164     15167     15165     15164     15167     15168
     15165     15164     15167     15169     15165     15164     15167     15170
     15166     15164     15167     15168     15166     15164     15167     15169
     15166     15164     15167     15170     15171     15174     15177     15178
     15171     15174     15177     15179     15171     15174     15177     15180
     15172     15171     15174     15175     15172     15171     15174     15176
     15172     15171     15174     15177     15173     15171     15174     15175
     15173     15171     15174     15176     15173     15171     15174     15177
     15174     15177     15180     15181     15174     15177     15180     15182
     15174     15177     15180     15183     15175     15174     15177     15178
     15175     15174     15177     15179     15175     15174     15177     15180
     15176     15174     15177     15178     15176     15174     15177     15179
     15176     15174     15177     15180     15177     15180     15183     15184
     15177     15180     15183     15185     15177     15180     15183     15186
     15178     15177     15180     15181     15178     15177     15180     15182
     15178     15177     15180     15183     15179     15177     15180     15181
     15179     15177     15180     15182     15179     15177     15180     15183
     15180     15183     15186     15187     15180     15183     15186     15188
     15180     15183     15186     15189     15181     15180     15183     15184
     15181     15180     15183     15185     15181     15180     15183     15186
     15182     15180     15183     15184     15182     15180     15183     15185
     15182     15180     15183     15186     15183     15186     15189     15190
     15183     15186     15189     15191     15183     15186     15189     15192
     15184     15183     15186     15187     15184     15183     15186     15188
     15184     15183     15186     15189     15185     15183     15186     15187
     15185     15183     15186     15188     15185     15183     15186     15189
     15186     15189     15192     15193     15186     15189     15192     15194
     15186     15189     15192     15195     15187     15186     15189     15190
     15187     15186     15189     15191     15187     15186     15189     15192
     15188     15186     15189     15190     15188     15186     15189     15191
     15188     15186     15189     15192     15189     15192     15195     15196
     15189     15192     15195     15197     15189     15192     15195     15198
     15190     15189     15192     15193     15190     15189     15192     15194
     15190     15189     15192     15195     15191     15189     15192     15193
     15191     15189     15192     15194     15191     15189     15192     15195
     15192     15195     15198     15199     15192     15195     15198     15200
     15192     15195     15198     15201     15193     15192     15195     15196
     15193     15192     15195     15197     15193     15192     15195     15198
     15194     15192     15195     15196     15194     15192     15195     15197
     15194     15192     15195     15198     15195     15198     15201     15202
     15195     15198     15201     15203     15195     15198     15201     15204
     15196     15195     15198     15199     15196     15195     15198     15200
     15196     15195     15198     15201     15197     15195     15198     15199
     15197     15195     15198     15200     15197     15195     15198     15201
     15198     15201     15204     15205     15198     15201     15204     15206
     15198     15201     15204     15207     15199     15198     15201     15202
     15199     15198     15201     15203     15199     15198     15201     15204
     15200     15198     15201     15202     15200     15198     15201     15203
     15200     15198     15201     15204     15201     15204     15207     15208
     15201     15204     15207     15209     15201     15204     15207     15210
     15202     15201     15204     15205     15202     15201     15204     15206
     15202     15201     15204     15207     15203     15201     15204     15205
     15203     15201     15204     15206     15203     15201     15204     15207
     15204     15207     15210     15211     15204     15207     15210     15212
     15204     15207     15210     15213     15205     15204     15207     15208
     15205     15204     15207     15209     15205     15204     15207     15210
     15206     15204     15207     15208     15206     15204     15207     15209
     15206     15204     15207     15210     15208     15207     15210     15211
     15208     15207     15210     15212     15208     15207     15210     15213
     15209     15207     15210     15211     15209     15207     15210     15212
     15209     15207     15210     15213     15214     15215     15230     15231
     15214     15215     15230     15232     15214     15215     15230     15236
     15215     15214     15218     15219     15215     15214     15218     15220
     15215     15214     15218     15221     15215     15214     15222     15223
     15215     15214     15222     15224     15215     15214     15222     15225
     15215     15214     15226     15227     15215     15214     15226     15228
     15215     15214     15226     15229     15215     15230     15236     15233
     15216     15215     15214     15218     15216     15215     15214     15222
     15216     15215     15214     15226     15216     15215     15230     15231
     15216     15215     15230     15232     15216     15215     15230     15236
     15217     15215     15214     15218     15217     15215     15214     15222
     15217     15215     15214     15226     15217     15215     15230     15231
     15217     15215     15230     15232     15217     15215     15230     15236
     15218     15214     15215     15230     15218     15214     15222     15223
     15218     15214     15222     15224     15218     15214     15222     15225
     15218     15214     15226     15227     15218     15214     15226     15228
     15218     15214     15226     15229     15219     15218     15214     15222
     15219     15218     15214     15226     15220     15218     15214     15222
     15220     15218     15214     15226     15221     15218     15214     15222
     15221     15218     15214     15226     15222     15214     15215     15230
     15222     15214     15226     15227     15222     15214     15226     15228
     15222     15214     15226     15229     15223     15222     15214     15226
     15224     15222     15214     15226     15225     15222     15214     15226
     15226     15214     15215     15230     15230     15236     15233     15234
     15230     15236     15233     15235     15230     15236     15233     15237
     15231     15230     15236     15233     15232     15230     15236     15233
     15233     15237     15238     15239     15233     15237     15238     15240
     15233     15237     15238     15241     15234     15233     15237     15238
     15235     15233     15237     15238     15236     15233     15237     15238
     15237     15238     15241     15242     15237     15238     15241     15243
     15237     15238     15241     15249     15238     15241     15243     15244
     15238     15241     15249     15250     15238     15241     15249     15251
     15238     15241     15249     15252     15239     15238     15241     15242
     15239     15238     15241     15243     15239     15238     15241     15249
     15240     15238     15241     15242     15240     15238     15241     15243
     15240     15238     15241     15249     15241     15243     15244     15245
     15241     15243     15244     15246     15241     15249     15252     15253
     15242     15241     15243     15244     15242     15241     15249     15250
     15242     15241     15249     15251     15242     15241     15249     15252
     15243     15241     15249     15250     15243     15241     15249     15251
     15243     15241     15249     15252     15243     15244     15246     15247
     15243     15244     15246     15248     15243     15244     15246     15258
     15244     15243     15241     15249     15244     15246     15258     15259
     15244     15246     15258     15260     15244     15246     15258     15261
     15245     15244     15246     15247     15245     15244     15246     15248
     15245     15244     15246     15258     15246     15258     15261     15262
     15246     15258     15261     15263     15246     15258     15261     15264
     15247     15246     15258     15259     15247     15246     15258     15260
     15247     15246     15258     15261     15248     15246     15258     15259
     15248     15246     15258     15260     15248     15246     15258     15261
     15249     15252     15253     15254     15249     15252     15253     15255
     15250     15249     15252     15253     15251     15249     15252     15253
     15252     15253     15255     15256     15252     15253     15255     15257
     15252     15253     15255     15305     15253     15255     15305     15306
     15253     15255     15305     15307     15253     15255     15305     15308
     15254     15253     15255     15256     15254     15253     15255     15257
     15254     15253     15255     15305     15255     15305     15308     15309
     15255     15305     15308     15310     15255     15305     15308     15311
     15256     15255     15305     15306     15256     15255     15305     15307
     15256     15255     15305     15308     15257     15255     15305     15306
     15257     15255     15305     15307     15257     15255     15305     15308
     15258     15261     15264     15265     15258     15261     15264     15266
     15258     15261     15264     15267     15259     15258     15261     15262
     15259     15258     15261     15263     15259     15258     15261     15264
     15260     15258     15261     15262     15260     15258     15261     15263
     15260     15258     15261     15264     15261     15264     15267     15268
     15261     15264     15267     15269     15261     15264     15267     15270
     15262     15261     15264     15265     15262     15261     15264     15266
     15262     15261     15264     15267     15263     15261     15264     15265
     15263     15261     15264     15266     15263     15261     15264     15267
     15264     15267     15270     15271     15264     15267     15270     15272
     15264     15267     15270     15273     15265     15264     15267     15268
     15265     15264     15267     15269     15265     15264     15267     15270
     15266     15264     15267     15268     15266     15264     15267     15269
     15266     15264     15267     15270     15267     15270     15273     15274
     15267     15270     15273     15275     15267     15270     15273     15276
     15268     15267     15270     15271     15268     15267     15270     15272
     15268     15267     15270     15273     15269     15267     15270     15271
     15269     15267     15270     15272     15269     15267     15270     15273
     15270     15273     15276     15277     15270     15273     15276     15278
     15271     15270     15273     15274     15271     15270     15273     15275
     15271     15270     15273     15276     15272     15270     15273     15274
     15272     15270     15273     15275     15272     15270     15273     15276
     15273     15276     15278     15279     15273     15276     15278     15280
     15274     15273     15276     15277     15274     15273     15276     15278
     15275     15273     15276     15277     15275     15273     15276     15278
     15276     15278     15280     15281     15276     15278     15280     15282
     15276     15278     15280     15283     15277     15276     15278     15279
     15277     15276     15278     15280     15278     15280     15283     15284
     15278     15280     15283     15285     15278     15280     15283     15286
     15279     15278     15280     15281     15279     15278     15280     15282
     15279     15278     15280     15283     15280     15283     15286     15287
     15280     15283     15286     15288     15280     15283     15286     15289
     15281     15280     15283     15284     15281     15280     15283     15285
     15281     15280     15283     15286     15282     15280     15283     15284
     15282     15280     15283     15285     15282     15280     15283     15286
     15283     15286     15289     15290     15283     15286     15289     15291
     15283     15286     15289     15292     15284     15283     15286     15287
     15284     15283     15286     15288     15284     15283     15286     15289
     15285     15283     15286     15287     15285     15283     15286     15288
     15285     15283     15286     15289     15286     15289     15292     15293
     15286     15289     15292     15294     15286     15289     15292     15295
     15287     15286     15289     15290     15287     15286     15289     15291
     15287     15286     15289     15292     15288     15286     15289     15290
     15288     15286     15289     15291     15288     15286     15289     15292
     15289     15292     15295     15296     15289     15292     15295     15297
     15289     15292     15295     15298     15290     15289     15292     15293
     15290     15289     15292     15294     15290     15289     15292     15295
     15291     15289     15292     15293     15291     15289     15292     15294
     15291     15289     15292     15295     15292     15295     15298     15299
     15292     15295     15298     15300     15292     15295     15298     15301
     15293     15292     15295     15296     15293     15292     15295     15297
     15293     15292     15295     15298     15294     15292     15295     15296
     15294     15292     15295     15297     15294     15292     15295     15298
     15295     15298     15301     15302     15295     15298     15301     15303
     15295     15298     15301     15304     15296     15295     15298     15299
     15296     15295     15298     15300     15296     15295     15298     15301
     15297     15295     15298     15299     15297     15295     15298     15300
     15297     15295     15298     15301     15299     15298     15301     15302
     15299     15298     15301     15303     15299     15298     15301     15304
     15300     15298     15301     15302     15300     15298     15301     15303
     15300     15298     15301     15304     15305     15308     15311     15312
     15305     15308     15311     15313     15305     15308     15311     15314
     15306     15305     15308     15309     15306     15305     15308     15310
     15306     15305     15308     15311     15307     15305     15308     15309
     15307     15305     15308     15310     15307     15305     15308     15311
     15308     15311     15314     15315     15308     15311     15314     15316
     15308     15311     15314     15317     15309     15308     15311     15312
     15309     15308     15311     15313     15309     15308     15311     15314
     15310     15308     15311     15312     15310     15308     15311     15313
     15310     15308     15311     15314     15311     15314     15317     15318
     15311     15314     15317     15319     15311     15314     15317     15320
     15312     15311     15314     15315     15312     15311     15314     15316
     15312     15311     15314     15317     15313     15311     15314     15315
     15313     15311     15314     15316     15313     15311     15314     15317
     15314     15317     15320     15321     15314     15317     15320     15322
     15314     15317     15320     15323     15315     15314     15317     15318
     15315     15314     15317     15319     15315     15314     15317     15320
     15316     15314     15317     15318     15316     15314     15317     15319
     15316     15314     15317     15320     15317     15320     15323     15324
     15317     15320     15323     15325     15317     15320     15323     15326
     15318     15317     15320     15321     15318     15317     15320     15322
     15318     15317     15320     15323     15319     15317     15320     15321
     15319     15317     15320     15322     15319     15317     15320     15323
     15320     15323     15326     15327     15320     15323     15326     15328
     15320     15323     15326     15329     15321     15320     15323     15324
     15321     15320     15323     15325     15321     15320     15323     15326
     15322     15320     15323     15324     15322     15320     15323     15325
     15322     15320     15323     15326     15323     15326     15329     15330
     15323     15326     15329     15331     15323     15326     15329     15332
     15324     15323     15326     15327     15324     15323     15326     15328
     15324     15323     15326     15329     15325     15323     15326     15327
     15325     15323     15326     15328     15325     15323     15326     15329
     15326     15329     15332     15333     15326     15329     15332     15334
     15326     15329     15332     15335     15327     15326     15329     15330
     15327     15326     15329     15331     15327     15326     15329     15332
     15328     15326     15329     15330     15328     15326     15329     15331
     15328     15326     15329     15332     15329     15332     15335     15336
     15329     15332     15335     15337     15329     15332     15335     15338
     15330     15329     15332     15333     15330     15329     15332     15334
     15330     15329     15332     15335     15331     15329     15332     15333
     15331     15329     15332     15334     15331     15329     15332     15335
     15332     15335     15338     15339     15332     15335     15338     15340
     15332     15335     15338     15341     15333     15332     15335     15336
     15333     15332     15335     15337     15333     15332     15335     15338
     15334     15332     15335     15336     15334     15332     15335     15337
     15334     15332     15335     15338     15335     15338     15341     15342
     15335     15338     15341     15343     15335     15338     15341     15344
     15336     15335     15338     15339     15336     15335     15338     15340
     15336     15335     15338     15341     15337     15335     15338     15339
     15337     15335     15338     15340     15337     15335     15338     15341
     15338     15341     15344     15345     15338     15341     15344     15346
     15338     15341     15344     15347     15339     15338     15341     15342
     15339     15338     15341     15343     15339     15338     15341     15344
     15340     15338     15341     15342     15340     15338     15341     15343
     15340     15338     15341     15344     15342     15341     15344     15345
     15342     15341     15344     15346     15342     15341     15344     15347
     15343     15341     15344     15345     15343     15341     15344     15346
     15343     15341     15344     15347     15348     15349     15364     15365
     15348     15349     15364     15366     15348     15349     15364     15370
     15349     15348     15352     15353     15349     15348     15352     15354
     15349     15348     15352     15355     15349     15348     15356     15357
     15349     15348     15356     15358     15349     15348     15356     15359
     15349     15348     15360     15361     15349     15348     15360     15362
     15349     15348     15360     15363     15349     15364     15370     15367
     15350     15349     15348     15352     15350     15349     15348     15356
     15350     15349     15348     15360     15350     15349     15364     15365
     15350     15349     15364     15366     15350     15349     15364     15370
     15351     15349     15348     15352     15351     15349     15348     15356
     15351     15349     15348     15360     15351     15349     15364     15365
     15351     15349     15364     15366     15351     15349     15364     15370
     15352     15348     15349     15364     15352     15348     15356     15357
     15352     15348     15356     15358     15352     15348     15356     15359
     15352     15348     15360     15361     15352     15348     15360     15362
     15352     15348     15360     15363     15353     15352     15348     15356
     15353     15352     15348     15360     15354     15352     15348     15356
     15354     15352     15348     15360     15355     15352     15348     15356
     15355     15352     15348     15360     15356     15348     15349     15364
     15356     15348     15360     15361     15356     15348     15360     15362
     15356     15348     15360     15363     15357     15356     15348     15360
     15358     15356     15348     15360     15359     15356     15348     15360
     15360     15348     15349     15364     15364     15370     15367     15368
     15364     15370     15367     15369     15364     15370     15367     15371
     15365     15364     15370     15367     15366     15364     15370     15367
     15367     15371     15372     15373     15367     15371     15372     15374
     15367     15371     15372     15375     15368     15367     15371     15372
     15369     15367     15371     15372     15370     15367     15371     15372
     15371     15372     15375     15376     15371     15372     15375     15377
     15371     15372     15375     15383     15372     15375     15377     15378
     15372     15375     15383     15384     15372     15375     15383     15385
     15372     15375     15383     15386     15373     15372     15375     15376
     15373     15372     15375     15377     15373     15372     15375     15383
     15374     15372     15375     15376     15374     15372     15375     15377
     15374     15372     15375     15383     15375     15377     15378     15379
     15375     15377     15378     15380     15375     15383     15386     15387
     15376     15375     15377     15378     15376     15375     15383     15384
     15376     15375     15383     15385     15376     15375     15383     15386
     15377     15375     15383     15384     15377     15375     15383     15385
     15377     15375     15383     15386     15377     15378     15380     15381
     15377     15378     15380     15382     15377     15378     15380     15392
     15378     15377     15375     15383     15378     15380     15392     15393
     15378     15380     15392     15394     15378     15380     15392     15395
     15379     15378     15380     15381     15379     15378     15380     15382
     15379     15378     15380     15392     15380     15392     15395     15396
     15380     15392     15395     15397     15380     15392     15395     15398
     15381     15380     15392     15393     15381     15380     15392     15394
     15381     15380     15392     15395     15382     15380     15392     15393
     15382     15380     15392     15394     15382     15380     15392     15395
     15383     15386     15387     15388     15383     15386     15387     15389
     15384     15383     15386     15387     15385     15383     15386     15387
     15386     15387     15389     15390     15386     15387     15389     15391
     15386     15387     15389     15439     15387     15389     15439     15440
     15387     15389     15439     15441     15387     15389     15439     15442
     15388     15387     15389     15390     15388     15387     15389     15391
     15388     15387     15389     15439     15389     15439     15442     15443
     15389     15439     15442     15444     15389     15439     15442     15445
     15390     15389     15439     15440     15390     15389     15439     15441
     15390     15389     15439     15442     15391     15389     15439     15440
     15391     15389     15439     15441     15391     15389     15439     15442
     15392     15395     15398     15399     15392     15395     15398     15400
     15392     15395     15398     15401     15393     15392     15395     15396
     15393     15392     15395     15397     15393     15392     15395     15398
     15394     15392     15395     15396     15394     15392     15395     15397
     15394     15392     15395     15398     15395     15398     15401     15402
     15395     15398     15401     15403     15395     15398     15401     15404
     15396     15395     15398     15399     15396     15395     15398     15400
     15396     15395     15398     15401     15397     15395     15398     15399
     15397     15395     15398     15400     15397     15395     15398     15401
     15398     15401     15404     15405     15398     15401     15404     15406
     15398     15401     15404     15407     15399     15398     15401     15402
     15399     15398     15401     15403     15399     15398     15401     15404
     15400     15398     15401     15402     15400     15398     15401     15403
     15400     15398     15401     15404     15401     15404     15407     15408
     15401     15404     15407     15409     15401     15404     15407     15410
     15402     15401     15404     15405     15402     15401     15404     15406
     15402     15401     15404     15407     15403     15401     15404     15405
     15403     15401     15404     15406     15403     15401     15404     15407
     15404     15407     15410     15411     15404     15407     15410     15412
     15405     15404     15407     15408     15405     15404     15407     15409
     15405     15404     15407     15410     15406     15404     15407     15408
     15406     15404     15407     15409     15406     15404     15407     15410
     15407     15410     15412     15413     15407     15410     15412     15414
     15408     15407     15410     15411     15408     15407     15410     15412
     15409     15407     15410     15411     15409     15407     15410     15412
     15410     15412     15414     15415     15410     15412     15414     15416
     15410     15412     15414     15417     15411     15410     15412     15413
     15411     15410     15412     15414     15412     15414     15417     15418
     15412     15414     15417     15419     15412     15414     15417     15420
     15413     15412     15414     15415     15413     15412     15414     15416
     15413     15412     15414     15417     15414     15417     15420     15421
     15414     15417     15420     15422     15414     15417     15420     15423
     15415     15414     15417     15418     15415     15414     15417     15419
     15415     15414     15417     15420     15416     15414     15417     15418
     15416     15414     15417     15419     15416     15414     15417     15420
     15417     15420     15423     15424     15417     15420     15423     15425
     15417     15420     15423     15426     15418     15417     15420     15421
     15418     15417     15420     15422     15418     15417     15420     15423
     15419     15417     15420     15421     15419     15417     15420     15422
     15419     15417     15420     15423     15420     15423     15426     15427
     15420     15423     15426     15428     15420     15423     15426     15429
     15421     15420     15423     15424     15421     15420     15423     15425
     15421     15420     15423     15426     15422     15420     15423     15424
     15422     15420     15423     15425     15422     15420     15423     15426
     15423     15426     15429     15430     15423     15426     15429     15431
     15423     15426     15429     15432     15424     15423     15426     15427
     15424     15423     15426     15428     15424     15423     15426     15429
     15425     15423     15426     15427     15425     15423     15426     15428
     15425     15423     15426     15429     15426     15429     15432     15433
     15426     15429     15432     15434     15426     15429     15432     15435
     15427     15426     15429     15430     15427     15426     15429     15431
     15427     15426     15429     15432     15428     15426     15429     15430
     15428     15426     15429     15431     15428     15426     15429     15432
     15429     15432     15435     15436     15429     15432     15435     15437
     15429     15432     15435     15438     15430     15429     15432     15433
     15430     15429     15432     15434     15430     15429     15432     15435
     15431     15429     15432     15433     15431     15429     15432     15434
     15431     15429     15432     15435     15433     15432     15435     15436
     15433     15432     15435     15437     15433     15432     15435     15438
     15434     15432     15435     15436     15434     15432     15435     15437
     15434     15432     15435     15438     15439     15442     15445     15446
     15439     15442     15445     15447     15439     15442     15445     15448
     15440     15439     15442     15443     15440     15439     15442     15444
     15440     15439     15442     15445     15441     15439     15442     15443
     15441     15439     15442     15444     15441     15439     15442     15445
     15442     15445     15448     15449     15442     15445     15448     15450
     15442     15445     15448     15451     15443     15442     15445     15446
     15443     15442     15445     15447     15443     15442     15445     15448
     15444     15442     15445     15446     15444     15442     15445     15447
     15444     15442     15445     15448     15445     15448     15451     15452
     15445     15448     15451     15453     15445     15448     15451     15454
     15446     15445     15448     15449     15446     15445     15448     15450
     15446     15445     15448     15451     15447     15445     15448     15449
     15447     15445     15448     15450     15447     15445     15448     15451
     15448     15451     15454     15455     15448     15451     15454     15456
     15448     15451     15454     15457     15449     15448     15451     15452
     15449     15448     15451     15453     15449     15448     15451     15454
     15450     15448     15451     15452     15450     15448     15451     15453
     15450     15448     15451     15454     15451     15454     15457     15458
     15451     15454     15457     15459     15451     15454     15457     15460
     15452     15451     15454     15455     15452     15451     15454     15456
     15452     15451     15454     15457     15453     15451     15454     15455
     15453     15451     15454     15456     15453     15451     15454     15457
     15454     15457     15460     15461     15454     15457     15460     15462
     15454     15457     15460     15463     15455     15454     15457     15458
     15455     15454     15457     15459     15455     15454     15457     15460
     15456     15454     15457     15458     15456     15454     15457     15459
     15456     15454     15457     15460     15457     15460     15463     15464
     15457     15460     15463     15465     15457     15460     15463     15466
     15458     15457     15460     15461     15458     15457     15460     15462
     15458     15457     15460     15463     15459     15457     15460     15461
     15459     15457     15460     15462     15459     15457     15460     15463
     15460     15463     15466     15467     15460     15463     15466     15468
     15460     15463     15466     15469     15461     15460     15463     15464
     15461     15460     15463     15465     15461     15460     15463     15466
     15462     15460     15463     15464     15462     15460     15463     15465
     15462     15460     15463     15466     15463     15466     15469     15470
     15463     15466     15469     15471     15463     15466     15469     15472
     15464     15463     15466     15467     15464     15463     15466     15468
     15464     15463     15466     15469     15465     15463     15466     15467
     15465     15463     15466     15468     15465     15463     15466     15469
     15466     15469     15472     15473     15466     15469     15472     15474
     15466     15469     15472     15475     15467     15466     15469     15470
     15467     15466     15469     15471     15467     15466     15469     15472
     15468     15466     15469     15470     15468     15466     15469     15471
     15468     15466     15469     15472     15469     15472     15475     15476
     15469     15472     15475     15477     15469     15472     15475     15478
     15470     15469     15472     15473     15470     15469     15472     15474
     15470     15469     15472     15475     15471     15469     15472     15473
     15471     15469     15472     15474     15471     15469     15472     15475
     15472     15475     15478     15479     15472     15475     15478     15480
     15472     15475     15478     15481     15473     15472     15475     15476
     15473     15472     15475     15477     15473     15472     15475     15478
     15474     15472     15475     15476     15474     15472     15475     15477
     15474     15472     15475     15478     15476     15475     15478     15479
     15476     15475     15478     15480     15476     15475     15478     15481
     15477     15475     15478     15479     15477     15475     15478     15480
     15477     15475     15478     15481     15482     15483     15498     15499
     15482     15483     15498     15500     15482     15483     15498     15504
     15483     15482     15486     15487     15483     15482     15486     15488
     15483     15482     15486     15489     15483     15482     15490     15491
     15483     15482     15490     15492     15483     15482     15490     15493
     15483     15482     15494     15495     15483     15482     15494     15496
     15483     15482     15494     15497     15483     15498     15504     15501
     15484     15483     15482     15486     15484     15483     15482     15490
     15484     15483     15482     15494     15484     15483     15498     15499
     15484     15483     15498     15500     15484     15483     15498     15504
     15485     15483     15482     15486     15485     15483     15482     15490
     15485     15483     15482     15494     15485     15483     15498     15499
     15485     15483     15498     15500     15485     15483     15498     15504
     15486     15482     15483     15498     15486     15482     15490     15491
     15486     15482     15490     15492     15486     15482     15490     15493
     15486     15482     15494     15495     15486     15482     15494     15496
     15486     15482     15494     15497     15487     15486     15482     15490
     15487     15486     15482     15494     15488     15486     15482     15490
     15488     15486     15482     15494     15489     15486     15482     15490
     15489     15486     15482     15494     15490     15482     15483     15498
     15490     15482     15494     15495     15490     15482     15494     15496
     15490     15482     15494     15497     15491     15490     15482     15494
     15492     15490     15482     15494     15493     15490     15482     15494
     15494     15482     15483     15498     15498     15504     15501     15502
     15498     15504     15501     15503     15498     15504     15501     15505
     15499     15498     15504     15501     15500     15498     15504     15501
     15501     15505     15506     15507     15501     15505     15506     15508
     15501     15505     15506     15509     15502     15501     15505     15506
     15503     15501     15505     15506     15504     15501     15505     15506
     15505     15506     15509     15510     15505     15506     15509     15511
     15505     15506     15509     15517     15506     15509     15511     15512
     15506     15509     15517     15518     15506     15509     15517     15519
     15506     15509     15517     15520     15507     15506     15509     15510
     15507     15506     15509     15511     15507     15506     15509     15517
     15508     15506     15509     15510     15508     15506     15509     15511
     15508     15506     15509     15517     15509     15511     15512     15513
     15509     15511     15512     15514     15509     15517     15520     15521
     15510     15509     15511     15512     15510     15509     15517     15518
     15510     15509     15517     15519     15510     15509     15517     15520
     15511     15509     15517     15518     15511     15509     15517     15519
     15511     15509     15517     15520     15511     15512     15514     15515
     15511     15512     15514     15516     15511     15512     15514     15526
     15512     15511     15509     15517     15512     15514     15526     15527
     15512     15514     15526     15528     15512     15514     15526     15529
     15513     15512     15514     15515     15513     15512     15514     15516
     15513     15512     15514     15526     15514     15526     15529     15530
     15514     15526     15529     15531     15514     15526     15529     15532
     15515     15514     15526     15527     15515     15514     15526     15528
     15515     15514     15526     15529     15516     15514     15526     15527
     15516     15514     15526     15528     15516     15514     15526     15529
     15517     15520     15521     15522     15517     15520     15521     15523
     15518     15517     15520     15521     15519     15517     15520     15521
     15520     15521     15523     15524     15520     15521     15523     15525
     15520     15521     15523     15573     15521     15523     15573     15574
     15521     15523     15573     15575     15521     15523     15573     15576
     15522     15521     15523     15524     15522     15521     15523     15525
     15522     15521     15523     15573     15523     15573     15576     15577
     15523     15573     15576     15578     15523     15573     15576     15579
     15524     15523     15573     15574     15524     15523     15573     15575
     15524     15523     15573     15576     15525     15523     15573     15574
     15525     15523     15573     15575     15525     15523     15573     15576
     15526     15529     15532     15533     15526     15529     15532     15534
     15526     15529     15532     15535     15527     15526     15529     15530
     15527     15526     15529     15531     15527     15526     15529     15532
     15528     15526     15529     15530     15528     15526     15529     15531
     15528     15526     15529     15532     15529     15532     15535     15536
     15529     15532     15535     15537     15529     15532     15535     15538
     15530     15529     15532     15533     15530     15529     15532     15534
     15530     15529     15532     15535     15531     15529     15532     15533
     15531     15529     15532     15534     15531     15529     15532     15535
     15532     15535     15538     15539     15532     15535     15538     15540
     15532     15535     15538     15541     15533     15532     15535     15536
     15533     15532     15535     15537     15533     15532     15535     15538
     15534     15532     15535     15536     15534     15532     15535     15537
     15534     15532     15535     15538     15535     15538     15541     15542
     15535     15538     15541     15543     15535     15538     15541     15544
     15536     15535     15538     15539     15536     15535     15538     15540
     15536     15535     15538     15541     15537     15535     15538     15539
     15537     15535     15538     15540     15537     15535     15538     15541
     15538     15541     15544     15545     15538     15541     15544     15546
     15539     15538     15541     15542     15539     15538     15541     15543
     15539     15538     15541     15544     15540     15538     15541     15542
     15540     15538     15541     15543     15540     15538     15541     15544
     15541     15544     15546     15547     15541     15544     15546     15548
     15542     15541     15544     15545     15542     15541     15544     15546
     15543     15541     15544     15545     15543     15541     15544     15546
     15544     15546     15548     15549     15544     15546     15548     15550
     15544     15546     15548     15551     15545     15544     15546     15547
     15545     15544     15546     15548     15546     15548     15551     15552
     15546     15548     15551     15553     15546     15548     15551     15554
     15547     15546     15548     15549     15547     15546     15548     15550
     15547     15546     15548     15551     15548     15551     15554     15555
     15548     15551     15554     15556     15548     15551     15554     15557
     15549     15548     15551     15552     15549     15548     15551     15553
     15549     15548     15551     15554     15550     15548     15551     15552
     15550     15548     15551     15553     15550     15548     15551     15554
     15551     15554     15557     15558     15551     15554     15557     15559
     15551     15554     15557     15560     15552     15551     15554     15555
     15552     15551     15554     15556     15552     15551     15554     15557
     15553     15551     15554     15555     15553     15551     15554     15556
     15553     15551     15554     15557     15554     15557     15560     15561
     15554     15557     15560     15562     15554     15557     15560     15563
     15555     15554     15557     15558     15555     15554     15557     15559
     15555     15554     15557     15560     15556     15554     15557     15558
     15556     15554     15557     15559     15556     15554     15557     15560
     15557     15560     15563     15564     15557     15560     15563     15565
     15557     15560     15563     15566     15558     15557     15560     15561
     15558     15557     15560     15562     15558     15557     15560     15563
     15559     15557     15560     15561     15559     15557     15560     15562
     15559     15557     15560     15563     15560     15563     15566     15567
     15560     15563     15566     15568     15560     15563     15566     15569
     15561     15560     15563     15564     15561     15560     15563     15565
     15561     15560     15563     15566     15562     15560     15563     15564
     15562     15560     15563     15565     15562     15560     15563     15566
     15563     15566     15569     15570     15563     15566     15569     15571
     15563     15566     15569     15572     15564     15563     15566     15567
     15564     15563     15566     15568     15564     15563     15566     15569
     15565     15563     15566     15567     15565     15563     15566     15568
     15565     15563     15566     15569     15567     15566     15569     15570
     15567     15566     15569     15571     15567     15566     15569     15572
     15568     15566     15569     15570     15568     15566     15569     15571
     15568     15566     15569     15572     15573     15576     15579     15580
     15573     15576     15579     15581     15573     15576     15579     15582
     15574     15573     15576     15577     15574     15573     15576     15578
     15574     15573     15576     15579     15575     15573     15576     15577
     15575     15573     15576     15578     15575     15573     15576     15579
     15576     15579     15582     15583     15576     15579     15582     15584
     15576     15579     15582     15585     15577     15576     15579     15580
     15577     15576     15579     15581     15577     15576     15579     15582
     15578     15576     15579     15580     15578     15576     15579     15581
     15578     15576     15579     15582     15579     15582     15585     15586
     15579     15582     15585     15587     15579     15582     15585     15588
     15580     15579     15582     15583     15580     15579     15582     15584
     15580     15579     15582     15585     15581     15579     15582     15583
     15581     15579     15582     15584     15581     15579     15582     15585
     15582     15585     15588     15589     15582     15585     15588     15590
     15582     15585     15588     15591     15583     15582     15585     15586
     15583     15582     15585     15587     15583     15582     15585     15588
     15584     15582     15585     15586     15584     15582     15585     15587
     15584     15582     15585     15588     15585     15588     15591     15592
     15585     15588     15591     15593     15585     15588     15591     15594
     15586     15585     15588     15589     15586     15585     15588     15590
     15586     15585     15588     15591     15587     15585     15588     15589
     15587     15585     15588     15590     15587     15585     15588     15591
     15588     15591     15594     15595     15588     15591     15594     15596
     15588     15591     15594     15597     15589     15588     15591     15592
     15589     15588     15591     15593     15589     15588     15591     15594
     15590     15588     15591     15592     15590     15588     15591     15593
     15590     15588     15591     15594     15591     15594     15597     15598
     15591     15594     15597     15599     15591     15594     15597     15600
     15592     15591     15594     15595     15592     15591     15594     15596
     15592     15591     15594     15597     15593     15591     15594     15595
     15593     15591     15594     15596     15593     15591     15594     15597
     15594     15597     15600     15601     15594     15597     15600     15602
     15594     15597     15600     15603     15595     15594     15597     15598
     15595     15594     15597     15599     15595     15594     15597     15600
     15596     15594     15597     15598     15596     15594     15597     15599
     15596     15594     15597     15600     15597     15600     15603     15604
     15597     15600     15603     15605     15597     15600     15603     15606
     15598     15597     15600     15601     15598     15597     15600     15602
     15598     15597     15600     15603     15599     15597     15600     15601
     15599     15597     15600     15602     15599     15597     15600     15603
     15600     15603     15606     15607     15600     15603     15606     15608
     15600     15603     15606     15609     15601     15600     15603     15604
     15601     15600     15603     15605     15601     15600     15603     15606
     15602     15600     15603     15604     15602     15600     15603     15605
     15602     15600     15603     15606     15603     15606     15609     15610
     15603     15606     15609     15611     15603     15606     15609     15612
     15604     15603     15606     15607     15604     15603     15606     15608
     15604     15603     15606     15609     15605     15603     15606     15607
     15605     15603     15606     15608     15605     15603     15606     15609
     15606     15609     15612     15613     15606     15609     15612     15614
     15606     15609     15612     15615     15607     15606     15609     15610
     15607     15606     15609     15611     15607     15606     15609     15612
     15608     15606     15609     15610     15608     15606     15609     15611
     15608     15606     15609     15612     15610     15609     15612     15613
     15610     15609     15612     15614     15610     15609     15612     15615
     15611     15609     15612     15613     15611     15609     15612     15614
     15611     15609     15612     15615     15616     15620     15622     15623
     15616     15620     15622     15624     15616     15620     15625     15626
     15616     15620     15625     15627     15616     15620     15625     15631
     15617     15616     15620     15621     15617     15616     15620     15622
     15617     15616     15620     15625     15618     15616     15620     15621
     15618     15616     15620     15622     15618     15616     15620     15625
     15619     15616     15620     15621     15619     15616     15620     15622
     15619     15616     15620     15625     15620     15625     15631     15628
     15621     15620     15622     15623     15621     15620     15622     15624
     15621     15620     15625     15626     15621     15620     15625     15627
     15621     15620     15625     15631     15622     15620     15625     15626
     15622     15620     15625     15627     15622     15620     15625     15631
     15623     15622     15620     15625     15624     15622     15620     15625
     15625     15631     15628     15629     15625     15631     15628     15630
     15625     15631     15628     15632     15626     15625     15631     15628
     15627     15625     15631     15628     15628     15632     15633     15634
     15628     15632     15633     15635     15628     15632     15633     15636
     15629     15628     15632     15633     15630     15628     15632     15633
     15631     15628     15632     15633     15632     15633     15636     15637
     15632     15633     15636     15638     15632     15633     15636     15644
     15633     15636     15638     15639     15633     15636     15644     15645
     15633     15636     15644     15646     15633     15636     15644     15647
     15634     15633     15636     15637     15634     15633     15636     15638
     15634     15633     15636     15644     15635     15633     15636     15637
     15635     15633     15636     15638     15635     15633     15636     15644
     15636     15638     15639     15640     15636     15638     15639     15641
     15636     15644     15647     15648     15637     15636     15638     15639
     15637     15636     15644     15645     15637     15636     15644     15646
     15637     15636     15644     15647     15638     15636     15644     15645
     15638     15636     15644     15646     15638     15636     15644     15647
     15638     15639     15641     15642     15638     15639     15641     15643
     15638     15639     15641     15653     15639     15638     15636     15644
     15639     15641     15653     15654     15639     15641     15653     15655
     15639     15641     15653     15656     15640     15639     15641     15642
     15640     15639     15641     15643     15640     15639     15641     15653
     15641     15653     15656     15657     15641     15653     15656     15658
     15641     15653     15656     15659     15642     15641     15653     15654
     15642     15641     15653     15655     15642     15641     15653     15656
     15643     15641     15653     15654     15643     15641     15653     15655
     15643     15641     15653     15656     15644     15647     15648     15649
     15644     15647     15648     15650     15645     15644     15647     15648
     15646     15644     15647     15648     15647     15648     15650     15651
     15647     15648     15650     15652     15647     15648     15650     15700
     15648     15650     15700     15701     15648     15650     15700     15702
     15648     15650     15700     15703     15649     15648     15650     15651
     15649     15648     15650     15652     15649     15648     15650     15700
     15650     15700     15703     15704     15650     15700     15703     15705
     15650     15700     15703     15706     15651     15650     15700     15701
     15651     15650     15700     15702     15651     15650     15700     15703
     15652     15650     15700     15701     15652     15650     15700     15702
     15652     15650     15700     15703     15653     15656     15659     15660
     15653     15656     15659     15661     15653     15656     15659     15662
     15654     15653     15656     15657     15654     15653     15656     15658
     15654     15653     15656     15659     15655     15653     15656     15657
     15655     15653     15656     15658     15655     15653     15656     15659
     15656     15659     15662     15663     15656     15659     15662     15664
     15656     15659     15662     15665     15657     15656     15659     15660
     15657     15656     15659     15661     15657     15656     15659     15662
     15658     15656     15659     15660     15658     15656     15659     15661
     15658     15656     15659     15662     15659     15662     15665     15666
     15659     15662     15665     15667     15659     15662     15665     15668
     15660     15659     15662     15663     15660     15659     15662     15664
     15660     15659     15662     15665     15661     15659     15662     15663
     15661     15659     15662     15664     15661     15659     15662     15665
     15662     15665     15668     15669     15662     15665     15668     15670
     15662     15665     15668     15671     15663     15662     15665     15666
     15663     15662     15665     15667     15663     15662     15665     15668
     15664     15662     15665     15666     15664     15662     15665     15667
     15664     15662     15665     15668     15665     15668     15671     15672
     15665     15668     15671     15673     15666     15665     15668     15669
     15666     15665     15668     15670     15666     15665     15668     15671
     15667     15665     15668     15669     15667     15665     15668     15670
     15667     15665     15668     15671     15668     15671     15673     15674
     15668     15671     15673     15675     15669     15668     15671     15672
     15669     15668     15671     15673     15670     15668     15671     15672
     15670     15668     15671     15673     15671     15673     15675     15676
     15671     15673     15675     15677     15671     15673     15675     15678
     15672     15671     15673     15674     15672     15671     15673     15675
     15673     15675     15678     15679     15673     15675     15678     15680
     15673     15675     15678     15681     15674     15673     15675     15676
     15674     15673     15675     15677     15674     15673     15675     15678
     15675     15678     15681     15682     15675     15678     15681     15683
     15675     15678     15681     15684     15676     15675     15678     15679
     15676     15675     15678     15680     15676     15675     15678     15681
     15677     15675     15678     15679     15677     15675     15678     15680
     15677     15675     15678     15681     15678     15681     15684     15685
     15678     15681     15684     15686     15678     15681     15684     15687
     15679     15678     15681     15682     15679     15678     15681     15683
     15679     15678     15681     15684     15680     15678     15681     15682
     15680     15678     15681     15683     15680     15678     15681     15684
     15681     15684     15687     15688     15681     15684     15687     15689
     15681     15684     15687     15690     15682     15681     15684     15685
     15682     15681     15684     15686     15682     15681     15684     15687
     15683     15681     15684     15685     15683     15681     15684     15686
     15683     15681     15684     15687     15684     15687     15690     15691
     15684     15687     15690     15692     15684     15687     15690     15693
     15685     15684     15687     15688     15685     15684     15687     15689
     15685     15684     15687     15690     15686     15684     15687     15688
     15686     15684     15687     15689     15686     15684     15687     15690
     15687     15690     15693     15694     15687     15690     15693     15695
     15687     15690     15693     15696     15688     15687     15690     15691
     15688     15687     15690     15692     15688     15687     15690     15693
     15689     15687     15690     15691     15689     15687     15690     15692
     15689     15687     15690     15693     15690     15693     15696     15697
     15690     15693     15696     15698     15690     15693     15696     15699
     15691     15690     15693     15694     15691     15690     15693     15695
     15691     15690     15693     15696     15692     15690     15693     15694
     15692     15690     15693     15695     15692     15690     15693     15696
     15694     15693     15696     15697     15694     15693     15696     15698
     15694     15693     15696     15699     15695     15693     15696     15697
     15695     15693     15696     15698     15695     15693     15696     15699
     15700     15703     15706     15707     15700     15703     15706     15708
     15700     15703     15706     15709     15701     15700     15703     15704
     15701     15700     15703     15705     15701     15700     15703     15706
     15702     15700     15703     15704     15702     15700     15703     15705
     15702     15700     15703     15706     15703     15706     15709     15710
     15703     15706     15709     15711     15703     15706     15709     15712
     15704     15703     15706     15707     15704     15703     15706     15708
     15704     15703     15706     15709     15705     15703     15706     15707
     15705     15703     15706     15708     15705     15703     15706     15709
     15706     15709     15712     15713     15706     15709     15712     15714
     15706     15709     15712     15715     15707     15706     15709     15710
     15707     15706     15709     15711     15707     15706     15709     15712
     15708     15706     15709     15710     15708     15706     15709     15711
     15708     15706     15709     15712     15709     15712     15715     15716
     15709     15712     15715     15717     15709     15712     15715     15718
     15710     15709     15712     15713     15710     15709     15712     15714
     15710     15709     15712     15715     15711     15709     15712     15713
     15711     15709     15712     15714     15711     15709     15712     15715
     15712     15715     15718     15719     15712     15715     15718     15720
     15712     15715     15718     15721     15713     15712     15715     15716
     15713     15712     15715     15717     15713     15712     15715     15718
     15714     15712     15715     15716     15714     15712     15715     15717
     15714     15712     15715     15718     15715     15718     15721     15722
     15715     15718     15721     15723     15715     15718     15721     15724
     15716     15715     15718     15719     15716     15715     15718     15720
     15716     15715     15718     15721     15717     15715     15718     15719
     15717     15715     15718     15720     15717     15715     15718     15721
     15718     15721     15724     15725     15718     15721     15724     15726
     15718     15721     15724     15727     15719     15718     15721     15722
     15719     15718     15721     15723     15719     15718     15721     15724
     15720     15718     15721     15722     15720     15718     15721     15723
     15720     15718     15721     15724     15721     15724     15727     15728
     15721     15724     15727     15729     15721     15724     15727     15730
     15722     15721     15724     15725     15722     15721     15724     15726
     15722     15721     15724     15727     15723     15721     15724     15725
     15723     15721     15724     15726     15723     15721     15724     15727
     15724     15727     15730     15731     15724     15727     15730     15732
     15724     15727     15730     15733     15725     15724     15727     15728
     15725     15724     15727     15729     15725     15724     15727     15730
     15726     15724     15727     15728     15726     15724     15727     15729
     15726     15724     15727     15730     15727     15730     15733     15734
     15727     15730     15733     15735     15727     15730     15733     15736
     15728     15727     15730     15731     15728     15727     15730     15732
     15728     15727     15730     15733     15729     15727     15730     15731
     15729     15727     15730     15732     15729     15727     15730     15733
     15730     15733     15736     15737     15730     15733     15736     15738
     15730     15733     15736     15739     15731     15730     15733     15734
     15731     15730     15733     15735     15731     15730     15733     15736
     15732     15730     15733     15734     15732     15730     15733     15735
     15732     15730     15733     15736     15733     15736     15739     15740
     15733     15736     15739     15741     15733     15736     15739     15742
     15734     15733     15736     15737     15734     15733     15736     15738
     15734     15733     15736     15739     15735     15733     15736     15737
     15735     15733     15736     15738     15735     15733     15736     15739
     15737     15736     15739     15740     15737     15736     15739     15741
     15737     15736     15739     15742     15738     15736     15739     15740
     15738     15736     15739     15741     15738     15736     15739     15742
     15743     15744     15759     15760     15743     15744     15759     15761
     15743     15744     15759     15765     15744     15743     15747     15748
     15744     15743     15747     15749     15744     15743     15747     15750
     15744     15743     15751     15752     15744     15743     15751     15753
     15744     15743     15751     15754     15744     15743     15755     15756
     15744     15743     15755     15757     15744     15743     15755     15758
     15744     15759     15765     15762     15745     15744     15743     15747
     15745     15744     15743     15751     15745     15744     15743     15755
     15745     15744     15759     15760     15745     15744     15759     15761
     15745     15744     15759     15765     15746     15744     15743     15747
     15746     15744     15743     15751     15746     15744     15743     15755
     15746     15744     15759     15760     15746     15744     15759     15761
     15746     15744     15759     15765     15747     15743     15744     15759
     15747     15743     15751     15752     15747     15743     15751     15753
     15747     15743     15751     15754     15747     15743     15755     15756
     15747     15743     15755     15757     15747     15743     15755     15758
     15748     15747     15743     15751     15748     15747     15743     15755
     15749     15747     15743     15751     15749     15747     15743     15755
     15750     15747     15743     15751     15750     15747     15743     15755
     15751     15743     15744     15759     15751     15743     15755     15756
     15751     15743     15755     15757     15751     15743     15755     15758
     15752     15751     15743     15755     15753     15751     15743     15755
     15754     15751     15743     15755     15755     15743     15744     15759
     15759     15765     15762     15763     15759     15765     15762     15764
     15759     15765     15762     15766     15760     15759     15765     15762
     15761     15759     15765     15762     15762     15766     15767     15768
     15762     15766     15767     15769     15762     15766     15767     15770
     15763     15762     15766     15767     15764     15762     15766     15767
     15765     15762     15766     15767     15766     15767     15770     15771
     15766     15767     15770     15772     15766     15767     15770     15778
     15767     15770     15772     15773     15767     15770     15778     15779
     15767     15770     15778     15780     15767     15770     15778     15781
     15768     15767     15770     15771     15768     15767     15770     15772
     15768     15767     15770     15778     15769     15767     15770     15771
     15769     15767     15770     15772     15769     15767     15770     15778
     15770     15772     15773     15774     15770     15772     15773     15775
     15770     15778     15781     15782     15771     15770     15772     15773
     15771     15770     15778     15779     15771     15770     15778     15780
     15771     15770     15778     15781     15772     15770     15778     15779
     15772     15770     15778     15780     15772     15770     15778     15781
     15772     15773     15775     15776     15772     15773     15775     15777
     15772     15773     15775     15787     15773     15772     15770     15778
     15773     15775     15787     15788     15773     15775     15787     15789
     15773     15775     15787     15790     15774     15773     15775     15776
     15774     15773     15775     15777     15774     15773     15775     15787
     15775     15787     15790     15791     15775     15787     15790     15792
     15775     15787     15790     15793     15776     15775     15787     15788
     15776     15775     15787     15789     15776     15775     15787     15790
     15777     15775     15787     15788     15777     15775     15787     15789
     15777     15775     15787     15790     15778     15781     15782     15783
     15778     15781     15782     15784     15779     15778     15781     15782
     15780     15778     15781     15782     15781     15782     15784     15785
     15781     15782     15784     15786     15781     15782     15784     15834
     15782     15784     15834     15835     15782     15784     15834     15836
     15782     15784     15834     15837     15783     15782     15784     15785
     15783     15782     15784     15786     15783     15782     15784     15834
     15784     15834     15837     15838     15784     15834     15837     15839
     15784     15834     15837     15840     15785     15784     15834     15835
     15785     15784     15834     15836     15785     15784     15834     15837
     15786     15784     15834     15835     15786     15784     15834     15836
     15786     15784     15834     15837     15787     15790     15793     15794
     15787     15790     15793     15795     15787     15790     15793     15796
     15788     15787     15790     15791     15788     15787     15790     15792
     15788     15787     15790     15793     15789     15787     15790     15791
     15789     15787     15790     15792     15789     15787     15790     15793
     15790     15793     15796     15797     15790     15793     15796     15798
     15790     15793     15796     15799     15791     15790     15793     15794
     15791     15790     15793     15795     15791     15790     15793     15796
     15792     15790     15793     15794     15792     15790     15793     15795
     15792     15790     15793     15796     15793     15796     15799     15800
     15793     15796     15799     15801     15793     15796     15799     15802
     15794     15793     15796     15797     15794     15793     15796     15798
     15794     15793     15796     15799     15795     15793     15796     15797
     15795     15793     15796     15798     15795     15793     15796     15799
     15796     15799     15802     15803     15796     15799     15802     15804
     15796     15799     15802     15805     15797     15796     15799     15800
     15797     15796     15799     15801     15797     15796     15799     15802
     15798     15796     15799     15800     15798     15796     15799     15801
     15798     15796     15799     15802     15799     15802     15805     15806
     15799     15802     15805     15807     15800     15799     15802     15803
     15800     15799     15802     15804     15800     15799     15802     15805
     15801     15799     15802     15803     15801     15799     15802     15804
     15801     15799     15802     15805     15802     15805     15807     15808
     15802     15805     15807     15809     15803     15802     15805     15806
     15803     15802     15805     15807     15804     15802     15805     15806
     15804     15802     15805     15807     15805     15807     15809     15810
     15805     15807     15809     15811     15805     15807     15809     15812
     15806     15805     15807     15808     15806     15805     15807     15809
     15807     15809     15812     15813     15807     15809     15812     15814
     15807     15809     15812     15815     15808     15807     15809     15810
     15808     15807     15809     15811     15808     15807     15809     15812
     15809     15812     15815     15816     15809     15812     15815     15817
     15809     15812     15815     15818     15810     15809     15812     15813
     15810     15809     15812     15814     15810     15809     15812     15815
     15811     15809     15812     15813     15811     15809     15812     15814
     15811     15809     15812     15815     15812     15815     15818     15819
     15812     15815     15818     15820     15812     15815     15818     15821
     15813     15812     15815     15816     15813     15812     15815     15817
     15813     15812     15815     15818     15814     15812     15815     15816
     15814     15812     15815     15817     15814     15812     15815     15818
     15815     15818     15821     15822     15815     15818     15821     15823
     15815     15818     15821     15824     15816     15815     15818     15819
     15816     15815     15818     15820     15816     15815     15818     15821
     15817     15815     15818     15819     15817     15815     15818     15820
     15817     15815     15818     15821     15818     15821     15824     15825
     15818     15821     15824     15826     15818     15821     15824     15827
     15819     15818     15821     15822     15819     15818     15821     15823
     15819     15818     15821     15824     15820     15818     15821     15822
     15820     15818     15821     15823     15820     15818     15821     15824
     15821     15824     15827     15828     15821     15824     15827     15829
     15821     15824     15827     15830     15822     15821     15824     15825
     15822     15821     15824     15826     15822     15821     15824     15827
     15823     15821     15824     15825     15823     15821     15824     15826
     15823     15821     15824     15827     15824     15827     15830     15831
     15824     15827     15830     15832     15824     15827     15830     15833
     15825     15824     15827     15828     15825     15824     15827     15829
     15825     15824     15827     15830     15826     15824     15827     15828
     15826     15824     15827     15829     15826     15824     15827     15830
     15828     15827     15830     15831     15828     15827     15830     15832
     15828     15827     15830     15833     15829     15827     15830     15831
     15829     15827     15830     15832     15829     15827     15830     15833
     15834     15837     15840     15841     15834     15837     15840     15842
     15834     15837     15840     15843     15835     15834     15837     15838
     15835     15834     15837     15839     15835     15834     15837     15840
     15836     15834     15837     15838     15836     15834     15837     15839
     15836     15834     15837     15840     15837     15840     15843     15844
     15837     15840     15843     15845     15837     15840     15843     15846
     15838     15837     15840     15841     15838     15837     15840     15842
     15838     15837     15840     15843     15839     15837     15840     15841
     15839     15837     15840     15842     15839     15837     15840     15843
     15840     15843     15846     15847     15840     15843     15846     15848
     15840     15843     15846     15849     15841     15840     15843     15844
     15841     15840     15843     15845     15841     15840     15843     15846
     15842     15840     15843     15844     15842     15840     15843     15845
     15842     15840     15843     15846     15843     15846     15849     15850
     15843     15846     15849     15851     15843     15846     15849     15852
     15844     15843     15846     15847     15844     15843     15846     15848
     15844     15843     15846     15849     15845     15843     15846     15847
     15845     15843     15846     15848     15845     15843     15846     15849
     15846     15849     15852     15853     15846     15849     15852     15854
     15846     15849     15852     15855     15847     15846     15849     15850
     15847     15846     15849     15851     15847     15846     15849     15852
     15848     15846     15849     15850     15848     15846     15849     15851
     15848     15846     15849     15852     15849     15852     15855     15856
     15849     15852     15855     15857     15849     15852     15855     15858
     15850     15849     15852     15853     15850     15849     15852     15854
     15850     15849     15852     15855     15851     15849     15852     15853
     15851     15849     15852     15854     15851     15849     15852     15855
     15852     15855     15858     15859     15852     15855     15858     15860
     15852     15855     15858     15861     15853     15852     15855     15856
     15853     15852     15855     15857     15853     15852     15855     15858
     15854     15852     15855     15856     15854     15852     15855     15857
     15854     15852     15855     15858     15855     15858     15861     15862
     15855     15858     15861     15863     15855     15858     15861     15864
     15856     15855     15858     15859     15856     15855     15858     15860
     15856     15855     15858     15861     15857     15855     15858     15859
     15857     15855     15858     15860     15857     15855     15858     15861
     15858     15861     15864     15865     15858     15861     15864     15866
     15858     15861     15864     15867     15859     15858     15861     15862
     15859     15858     15861     15863     15859     15858     15861     15864
     15860     15858     15861     15862     15860     15858     15861     15863
     15860     15858     15861     15864     15861     15864     15867     15868
     15861     15864     15867     15869     15861     15864     15867     15870
     15862     15861     15864     15865     15862     15861     15864     15866
     15862     15861     15864     15867     15863     15861     15864     15865
     15863     15861     15864     15866     15863     15861     15864     15867
     15864     15867     15870     15871     15864     15867     15870     15872
     15864     15867     15870     15873     15865     15864     15867     15868
     15865     15864     15867     15869     15865     15864     15867     15870
     15866     15864     15867     15868     15866     15864     15867     15869
     15866     15864     15867     15870     15867     15870     15873     15874
     15867     15870     15873     15875     15867     15870     15873     15876
     15868     15867     15870     15871     15868     15867     15870     15872
     15868     15867     15870     15873     15869     15867     15870     15871
     15869     15867     15870     15872     15869     15867     15870     15873
     15871     15870     15873     15874     15871     15870     15873     15875
     15871     15870     15873     15876     15872     15870     15873     15874
     15872     15870     15873     15875     15872     15870     15873     15876
     15877     15878     15893     15894     15877     15878     15893     15895
     15877     15878     15893     15899     15878     15877     15881     15882
     15878     15877     15881     15883     15878     15877     15881     15884
     15878     15877     15885     15886     15878     15877     15885     15887
     15878     15877     15885     15888     15878     15877     15889     15890
     15878     15877     15889     15891     15878     15877     15889     15892
     15878     15893     15899     15896     15879     15878     15877     15881
     15879     15878     15877     15885     15879     15878     15877     15889
     15879     15878     15893     15894     15879     15878     15893     15895
     15879     15878     15893     15899     15880     15878     15877     15881
     15880     15878     15877     15885     15880     15878     15877     15889
     15880     15878     15893     15894     15880     15878     15893     15895
     15880     15878     15893     15899     15881     15877     15878     15893
     15881     15877     15885     15886     15881     15877     15885     15887
     15881     15877     15885     15888     15881     15877     15889     15890
     15881     15877     15889     15891     15881     15877     15889     15892
     15882     15881     15877     15885     15882     15881     15877     15889
     15883     15881     15877     15885     15883     15881     15877     15889
     15884     15881     15877     15885     15884     15881     15877     15889
     15885     15877     15878     15893     15885     15877     15889     15890
     15885     15877     15889     15891     15885     15877     15889     15892
     15886     15885     15877     15889     15887     15885     15877     15889
     15888     15885     15877     15889     15889     15877     15878     15893
     15893     15899     15896     15897     15893     15899     15896     15898
     15893     15899     15896     15900     15894     15893     15899     15896
     15895     15893     15899     15896     15896     15900     15901     15902
     15896     15900     15901     15903     15896     15900     15901     15904
     15897     15896     15900     15901     15898     15896     15900     15901
     15899     15896     15900     15901     15900     15901     15904     15905
     15900     15901     15904     15906     15900     15901     15904     15912
     15901     15904     15906     15907     15901     15904     15912     15913
     15901     15904     15912     15914     15901     15904     15912     15915
     15902     15901     15904     15905     15902     15901     15904     15906
     15902     15901     15904     15912     15903     15901     15904     15905
     15903     15901     15904     15906     15903     15901     15904     15912
     15904     15906     15907     15908     15904     15906     15907     15909
     15904     15912     15915     15916     15905     15904     15906     15907
     15905     15904     15912     15913     15905     15904     15912     15914
     15905     15904     15912     15915     15906     15904     15912     15913
     15906     15904     15912     15914     15906     15904     15912     15915
     15906     15907     15909     15910     15906     15907     15909     15911
     15906     15907     15909     15921     15907     15906     15904     15912
     15907     15909     15921     15922     15907     15909     15921     15923
     15907     15909     15921     15924     15908     15907     15909     15910
     15908     15907     15909     15911     15908     15907     15909     15921
     15909     15921     15924     15925     15909     15921     15924     15926
     15909     15921     15924     15927     15910     15909     15921     15922
     15910     15909     15921     15923     15910     15909     15921     15924
     15911     15909     15921     15922     15911     15909     15921     15923
     15911     15909     15921     15924     15912     15915     15916     15917
     15912     15915     15916     15918     15913     15912     15915     15916
     15914     15912     15915     15916     15915     15916     15918     15919
     15915     15916     15918     15920     15915     15916     15918     15968
     15916     15918     15968     15969     15916     15918     15968     15970
     15916     15918     15968     15971     15917     15916     15918     15919
     15917     15916     15918     15920     15917     15916     15918     15968
     15918     15968     15971     15972     15918     15968     15971     15973
     15918     15968     15971     15974     15919     15918     15968     15969
     15919     15918     15968     15970     15919     15918     15968     15971
     15920     15918     15968     15969     15920     15918     15968     15970
     15920     15918     15968     15971     15921     15924     15927     15928
     15921     15924     15927     15929     15921     15924     15927     15930
     15922     15921     15924     15925     15922     15921     15924     15926
     15922     15921     15924     15927     15923     15921     15924     15925
     15923     15921     15924     15926     15923     15921     15924     15927
     15924     15927     15930     15931     15924     15927     15930     15932
     15924     15927     15930     15933     15925     15924     15927     15928
     15925     15924     15927     15929     15925     15924     15927     15930
     15926     15924     15927     15928     15926     15924     15927     15929
     15926     15924     15927     15930     15927     15930     15933     15934
     15927     15930     15933     15935     15927     15930     15933     15936
     15928     15927     15930     15931     15928     15927     15930     15932
     15928     15927     15930     15933     15929     15927     15930     15931
     15929     15927     15930     15932     15929     15927     15930     15933
     15930     15933     15936     15937     15930     15933     15936     15938
     15930     15933     15936     15939     15931     15930     15933     15934
     15931     15930     15933     15935     15931     15930     15933     15936
     15932     15930     15933     15934     15932     15930     15933     15935
     15932     15930     15933     15936     15933     15936     15939     15940
     15933     15936     15939     15941     15934     15933     15936     15937
     15934     15933     15936     15938     15934     15933     15936     15939
     15935     15933     15936     15937     15935     15933     15936     15938
     15935     15933     15936     15939     15936     15939     15941     15942
     15936     15939     15941     15943     15937     15936     15939     15940
     15937     15936     15939     15941     15938     15936     15939     15940
     15938     15936     15939     15941     15939     15941     15943     15944
     15939     15941     15943     15945     15939     15941     15943     15946
     15940     15939     15941     15942     15940     15939     15941     15943
     15941     15943     15946     15947     15941     15943     15946     15948
     15941     15943     15946     15949     15942     15941     15943     15944
     15942     15941     15943     15945     15942     15941     15943     15946
     15943     15946     15949     15950     15943     15946     15949     15951
     15943     15946     15949     15952     15944     15943     15946     15947
     15944     15943     15946     15948     15944     15943     15946     15949
     15945     15943     15946     15947     15945     15943     15946     15948
     15945     15943     15946     15949     15946     15949     15952     15953
     15946     15949     15952     15954     15946     15949     15952     15955
     15947     15946     15949     15950     15947     15946     15949     15951
     15947     15946     15949     15952     15948     15946     15949     15950
     15948     15946     15949     15951     15948     15946     15949     15952
     15949     15952     15955     15956     15949     15952     15955     15957
     15949     15952     15955     15958     15950     15949     15952     15953
     15950     15949     15952     15954     15950     15949     15952     15955
     15951     15949     15952     15953     15951     15949     15952     15954
     15951     15949     15952     15955     15952     15955     15958     15959
     15952     15955     15958     15960     15952     15955     15958     15961
     15953     15952     15955     15956     15953     15952     15955     15957
     15953     15952     15955     15958     15954     15952     15955     15956
     15954     15952     15955     15957     15954     15952     15955     15958
     15955     15958     15961     15962     15955     15958     15961     15963
     15955     15958     15961     15964     15956     15955     15958     15959
     15956     15955     15958     15960     15956     15955     15958     15961
     15957     15955     15958     15959     15957     15955     15958     15960
     15957     15955     15958     15961     15958     15961     15964     15965
     15958     15961     15964     15966     15958     15961     15964     15967
     15959     15958     15961     15962     15959     15958     15961     15963
     15959     15958     15961     15964     15960     15958     15961     15962
     15960     15958     15961     15963     15960     15958     15961     15964
     15962     15961     15964     15965     15962     15961     15964     15966
     15962     15961     15964     15967     15963     15961     15964     15965
     15963     15961     15964     15966     15963     15961     15964     15967
     15968     15971     15974     15975     15968     15971     15974     15976
     15968     15971     15974     15977     15969     15968     15971     15972
     15969     15968     15971     15973     15969     15968     15971     15974
     15970     15968     15971     15972     15970     15968     15971     15973
     15970     15968     15971     15974     15971     15974     15977     15978
     15971     15974     15977     15979     15971     15974     15977     15980
     15972     15971     15974     15975     15972     15971     15974     15976
     15972     15971     15974     15977     15973     15971     15974     15975
     15973     15971     15974     15976     15973     15971     15974     15977
     15974     15977     15980     15981     15974     15977     15980     15982
     15974     15977     15980     15983     15975     15974     15977     15978
     15975     15974     15977     15979     15975     15974     15977     15980
     15976     15974     15977     15978     15976     15974     15977     15979
     15976     15974     15977     15980     15977     15980     15983     15984
     15977     15980     15983     15985     15977     15980     15983     15986
     15978     15977     15980     15981     15978     15977     15980     15982
     15978     15977     15980     15983     15979     15977     15980     15981
     15979     15977     15980     15982     15979     15977     15980     15983
     15980     15983     15986     15987     15980     15983     15986     15988
     15980     15983     15986     15989     15981     15980     15983     15984
     15981     15980     15983     15985     15981     15980     15983     15986
     15982     15980     15983     15984     15982     15980     15983     15985
     15982     15980     15983     15986     15983     15986     15989     15990
     15983     15986     15989     15991     15983     15986     15989     15992
     15984     15983     15986     15987     15984     15983     15986     15988
     15984     15983     15986     15989     15985     15983     15986     15987
     15985     15983     15986     15988     15985     15983     15986     15989
     15986     15989     15992     15993     15986     15989     15992     15994
     15986     15989     15992     15995     15987     15986     15989     15990
     15987     15986     15989     15991     15987     15986     15989     15992
     15988     15986     15989     15990     15988     15986     15989     15991
     15988     15986     15989     15992     15989     15992     15995     15996
     15989     15992     15995     15997     15989     15992     15995     15998
     15990     15989     15992     15993     15990     15989     15992     15994
     15990     15989     15992     15995     15991     15989     15992     15993
     15991     15989     15992     15994     15991     15989     15992     15995
     15992     15995     15998     15999     15992     15995     15998     16000
     15992     15995     15998     16001     15993     15992     15995     15996
     15993     15992     15995     15997     15993     15992     15995     15998
     15994     15992     15995     15996     15994     15992     15995     15997
     15994     15992     15995     15998     15995     15998     16001     16002
     15995     15998     16001     16003     15995     15998     16001     16004
     15996     15995     15998     15999     15996     15995     15998     16000
     15996     15995     15998     16001     15997     15995     15998     15999
     15997     15995     15998     16000     15997     15995     15998     16001
     15998     16001     16004     16005     15998     16001     16004     16006
     15998     16001     16004     16007     15999     15998     16001     16002
     15999     15998     16001     16003     15999     15998     16001     16004
     16000     15998     16001     16002     16000     15998     16001     16003
     16000     15998     16001     16004     16001     16004     16007     16008
     16001     16004     16007     16009     16001     16004     16007     16010
     16002     16001     16004     16005     16002     16001     16004     16006
     16002     16001     16004     16007     16003     16001     16004     16005
     16003     16001     16004     16006     16003     16001     16004     16007
     16005     16004     16007     16008     16005     16004     16007     16009
     16005     16004     16007     16010     16006     16004     16007     16008
     16006     16004     16007     16009     16006     16004     16007     16010
     16011     16012     16027     16028     16011     16012     16027     16029
     16011     16012     16027     16033     16012     16011     16015     16016
     16012     16011     16015     16017     16012     16011     16015     16018
     16012     16011     16019     16020     16012     16011     16019     16021
     16012     16011     16019     16022     16012     16011     16023     16024
     16012     16011     16023     16025     16012     16011     16023     16026
     16012     16027     16033     16030     16013     16012     16011     16015
     16013     16012     16011     16019     16013     16012     16011     16023
     16013     16012     16027     16028     16013     16012     16027     16029
     16013     16012     16027     16033     16014     16012     16011     16015
     16014     16012     16011     16019     16014     16012     16011     16023
     16014     16012     16027     16028     16014     16012     16027     16029
     16014     16012     16027     16033     16015     16011     16012     16027
     16015     16011     16019     16020     16015     16011     16019     16021
     16015     16011     16019     16022     16015     16011     16023     16024
     16015     16011     16023     16025     16015     16011     16023     16026
     16016     16015     16011     16019     16016     16015     16011     16023
     16017     16015     16011     16019     16017     16015     16011     16023
     16018     16015     16011     16019     16018     16015     16011     16023
     16019     16011     16012     16027     16019     16011     16023     16024
     16019     16011     16023     16025     16019     16011     16023     16026
     16020     16019     16011     16023     16021     16019     16011     16023
     16022     16019     16011     16023     16023     16011     16012     16027
     16027     16033     16030     16031     16027     16033     16030     16032
     16027     16033     16030     16034     16028     16027     16033     16030
     16029     16027     16033     16030     16030     16034     16035     16036
     16030     16034     16035     16037     16030     16034     16035     16038
     16031     16030     16034     16035     16032     16030     16034     16035
     16033     16030     16034     16035     16034     16035     16038     16039
     16034     16035     16038     16040     16034     16035     16038     16046
     16035     16038     16040     16041     16035     16038     16046     16047
     16035     16038     16046     16048     16035     16038     16046     16049
     16036     16035     16038     16039     16036     16035     16038     16040
     16036     16035     16038     16046     16037     16035     16038     16039
     16037     16035     16038     16040     16037     16035     16038     16046
     16038     16040     16041     16042     16038     16040     16041     16043
     16038     16046     16049     16050     16039     16038     16040     16041
     16039     16038     16046     16047     16039     16038     16046     16048
     16039     16038     16046     16049     16040     16038     16046     16047
     16040     16038     16046     16048     16040     16038     16046     16049
     16040     16041     16043     16044     16040     16041     16043     16045
     16040     16041     16043     16055     16041     16040     16038     16046
     16041     16043     16055     16056     16041     16043     16055     16057
     16041     16043     16055     16058     16042     16041     16043     16044
     16042     16041     16043     16045     16042     16041     16043     16055
     16043     16055     16058     16059     16043     16055     16058     16060
     16043     16055     16058     16061     16044     16043     16055     16056
     16044     16043     16055     16057     16044     16043     16055     16058
     16045     16043     16055     16056     16045     16043     16055     16057
     16045     16043     16055     16058     16046     16049     16050     16051
     16046     16049     16050     16052     16047     16046     16049     16050
     16048     16046     16049     16050     16049     16050     16052     16053
     16049     16050     16052     16054     16049     16050     16052     16102
     16050     16052     16102     16103     16050     16052     16102     16104
     16050     16052     16102     16105     16051     16050     16052     16053
     16051     16050     16052     16054     16051     16050     16052     16102
     16052     16102     16105     16106     16052     16102     16105     16107
     16052     16102     16105     16108     16053     16052     16102     16103
     16053     16052     16102     16104     16053     16052     16102     16105
     16054     16052     16102     16103     16054     16052     16102     16104
     16054     16052     16102     16105     16055     16058     16061     16062
     16055     16058     16061     16063     16055     16058     16061     16064
     16056     16055     16058     16059     16056     16055     16058     16060
     16056     16055     16058     16061     16057     16055     16058     16059
     16057     16055     16058     16060     16057     16055     16058     16061
     16058     16061     16064     16065     16058     16061     16064     16066
     16058     16061     16064     16067     16059     16058     16061     16062
     16059     16058     16061     16063     16059     16058     16061     16064
     16060     16058     16061     16062     16060     16058     16061     16063
     16060     16058     16061     16064     16061     16064     16067     16068
     16061     16064     16067     16069     16061     16064     16067     16070
     16062     16061     16064     16065     16062     16061     16064     16066
     16062     16061     16064     16067     16063     16061     16064     16065
     16063     16061     16064     16066     16063     16061     16064     16067
     16064     16067     16070     16071     16064     16067     16070     16072
     16064     16067     16070     16073     16065     16064     16067     16068
     16065     16064     16067     16069     16065     16064     16067     16070
     16066     16064     16067     16068     16066     16064     16067     16069
     16066     16064     16067     16070     16067     16070     16073     16074
     16067     16070     16073     16075     16068     16067     16070     16071
     16068     16067     16070     16072     16068     16067     16070     16073
     16069     16067     16070     16071     16069     16067     16070     16072
     16069     16067     16070     16073     16070     16073     16075     16076
     16070     16073     16075     16077     16071     16070     16073     16074
     16071     16070     16073     16075     16072     16070     16073     16074
     16072     16070     16073     16075     16073     16075     16077     16078
     16073     16075     16077     16079     16073     16075     16077     16080
     16074     16073     16075     16076     16074     16073     16075     16077
     16075     16077     16080     16081     16075     16077     16080     16082
     16075     16077     16080     16083     16076     16075     16077     16078
     16076     16075     16077     16079     16076     16075     16077     16080
     16077     16080     16083     16084     16077     16080     16083     16085
     16077     16080     16083     16086     16078     16077     16080     16081
     16078     16077     16080     16082     16078     16077     16080     16083
     16079     16077     16080     16081     16079     16077     16080     16082
     16079     16077     16080     16083     16080     16083     16086     16087
     16080     16083     16086     16088     16080     16083     16086     16089
     16081     16080     16083     16084     16081     16080     16083     16085
     16081     16080     16083     16086     16082     16080     16083     16084
     16082     16080     16083     16085     16082     16080     16083     16086
     16083     16086     16089     16090     16083     16086     16089     16091
     16083     16086     16089     16092     16084     16083     16086     16087
     16084     16083     16086     16088     16084     16083     16086     16089
     16085     16083     16086     16087     16085     16083     16086     16088
     16085     16083     16086     16089     16086     16089     16092     16093
     16086     16089     16092     16094     16086     16089     16092     16095
     16087     16086     16089     16090     16087     16086     16089     16091
     16087     16086     16089     16092     16088     16086     16089     16090
     16088     16086     16089     16091     16088     16086     16089     16092
     16089     16092     16095     16096     16089     16092     16095     16097
     16089     16092     16095     16098     16090     16089     16092     16093
     16090     16089     16092     16094     16090     16089     16092     16095
     16091     16089     16092     16093     16091     16089     16092     16094
     16091     16089     16092     16095     16092     16095     16098     16099
     16092     16095     16098     16100     16092     16095     16098     16101
     16093     16092     16095     16096     16093     16092     16095     16097
     16093     16092     16095     16098     16094     16092     16095     16096
     16094     16092     16095     16097     16094     16092     16095     16098
     16096     16095     16098     16099     16096     16095     16098     16100
     16096     16095     16098     16101     16097     16095     16098     16099
     16097     16095     16098     16100     16097     16095     16098     16101
     16102     16105     16108     16109     16102     16105     16108     16110
     16102     16105     16108     16111     16103     16102     16105     16106
     16103     16102     16105     16107     16103     16102     16105     16108
     16104     16102     16105     16106     16104     16102     16105     16107
     16104     16102     16105     16108     16105     16108     16111     16112
     16105     16108     16111     16113     16105     16108     16111     16114
     16106     16105     16108     16109     16106     16105     16108     16110
     16106     16105     16108     16111     16107     16105     16108     16109
     16107     16105     16108     16110     16107     16105     16108     16111
     16108     16111     16114     16115     16108     16111     16114     16116
     16108     16111     16114     16117     16109     16108     16111     16112
     16109     16108     16111     16113     16109     16108     16111     16114
     16110     16108     16111     16112     16110     16108     16111     16113
     16110     16108     16111     16114     16111     16114     16117     16118
     16111     16114     16117     16119     16111     16114     16117     16120
     16112     16111     16114     16115     16112     16111     16114     16116
     16112     16111     16114     16117     16113     16111     16114     16115
     16113     16111     16114     16116     16113     16111     16114     16117
     16114     16117     16120     16121     16114     16117     16120     16122
     16114     16117     16120     16123     16115     16114     16117     16118
     16115     16114     16117     16119     16115     16114     16117     16120
     16116     16114     16117     16118     16116     16114     16117     16119
     16116     16114     16117     16120     16117     16120     16123     16124
     16117     16120     16123     16125     16117     16120     16123     16126
     16118     16117     16120     16121     16118     16117     16120     16122
     16118     16117     16120     16123     16119     16117     16120     16121
     16119     16117     16120     16122     16119     16117     16120     16123
     16120     16123     16126     16127     16120     16123     16126     16128
     16120     16123     16126     16129     16121     16120     16123     16124
     16121     16120     16123     16125     16121     16120     16123     16126
     16122     16120     16123     16124     16122     16120     16123     16125
     16122     16120     16123     16126     16123     16126     16129     16130
     16123     16126     16129     16131     16123     16126     16129     16132
     16124     16123     16126     16127     16124     16123     16126     16128
     16124     16123     16126     16129     16125     16123     16126     16127
     16125     16123     16126     16128     16125     16123     16126     16129
     16126     16129     16132     16133     16126     16129     16132     16134
     16126     16129     16132     16135     16127     16126     16129     16130
     16127     16126     16129     16131     16127     16126     16129     16132
     16128     16126     16129     16130     16128     16126     16129     16131
     16128     16126     16129     16132     16129     16132     16135     16136
     16129     16132     16135     16137     16129     16132     16135     16138
     16130     16129     16132     16133     16130     16129     16132     16134
     16130     16129     16132     16135     16131     16129     16132     16133
     16131     16129     16132     16134     16131     16129     16132     16135
     16132     16135     16138     16139     16132     16135     16138     16140
     16132     16135     16138     16141     16133     16132     16135     16136
     16133     16132     16135     16137     16133     16132     16135     16138
     16134     16132     16135     16136     16134     16132     16135     16137
     16134     16132     16135     16138     16135     16138     16141     16142
     16135     16138     16141     16143     16135     16138     16141     16144
     16136     16135     16138     16139     16136     16135     16138     16140
     16136     16135     16138     16141     16137     16135     16138     16139
     16137     16135     16138     16140     16137     16135     16138     16141
     16139     16138     16141     16142     16139     16138     16141     16143
     16139     16138     16141     16144     16140     16138     16141     16142
     16140     16138     16141     16143     16140     16138     16141     16144
     16145     16146     16161     16162     16145     16146     16161     16163
     16145     16146     16161     16167     16146     16145     16149     16150
     16146     16145     16149     16151     16146     16145     16149     16152
     16146     16145     16153     16154     16146     16145     16153     16155
     16146     16145     16153     16156     16146     16145     16157     16158
     16146     16145     16157     16159     16146     16145     16157     16160
     16146     16161     16167     16164     16147     16146     16145     16149
     16147     16146     16145     16153     16147     16146     16145     16157
     16147     16146     16161     16162     16147     16146     16161     16163
     16147     16146     16161     16167     16148     16146     16145     16149
     16148     16146     16145     16153     16148     16146     16145     16157
     16148     16146     16161     16162     16148     16146     16161     16163
     16148     16146     16161     16167     16149     16145     16146     16161
     16149     16145     16153     16154     16149     16145     16153     16155
     16149     16145     16153     16156     16149     16145     16157     16158
     16149     16145     16157     16159     16149     16145     16157     16160
     16150     16149     16145     16153     16150     16149     16145     16157
     16151     16149     16145     16153     16151     16149     16145     16157
     16152     16149     16145     16153     16152     16149     16145     16157
     16153     16145     16146     16161     16153     16145     16157     16158
     16153     16145     16157     16159     16153     16145     16157     16160
     16154     16153     16145     16157     16155     16153     16145     16157
     16156     16153     16145     16157     16157     16145     16146     16161
     16161     16167     16164     16165     16161     16167     16164     16166
     16161     16167     16164     16168     16162     16161     16167     16164
     16163     16161     16167     16164     16164     16168     16169     16170
     16164     16168     16169     16171     16164     16168     16169     16172
     16165     16164     16168     16169     16166     16164     16168     16169
     16167     16164     16168     16169     16168     16169     16172     16173
     16168     16169     16172     16174     16168     16169     16172     16180
     16169     16172     16174     16175     16169     16172     16180     16181
     16169     16172     16180     16182     16169     16172     16180     16183
     16170     16169     16172     16173     16170     16169     16172     16174
     16170     16169     16172     16180     16171     16169     16172     16173
     16171     16169     16172     16174     16171     16169     16172     16180
     16172     16174     16175     16176     16172     16174     16175     16177
     16172     16180     16183     16184     16173     16172     16174     16175
     16173     16172     16180     16181     16173     16172     16180     16182
     16173     16172     16180     16183     16174     16172     16180     16181
     16174     16172     16180     16182     16174     16172     16180     16183
     16174     16175     16177     16178     16174     16175     16177     16179
     16174     16175     16177     16189     16175     16174     16172     16180
     16175     16177     16189     16190     16175     16177     16189     16191
     16175     16177     16189     16192     16176     16175     16177     16178
     16176     16175     16177     16179     16176     16175     16177     16189
     16177     16189     16192     16193     16177     16189     16192     16194
     16177     16189     16192     16195     16178     16177     16189     16190
     16178     16177     16189     16191     16178     16177     16189     16192
     16179     16177     16189     16190     16179     16177     16189     16191
     16179     16177     16189     16192     16180     16183     16184     16185
     16180     16183     16184     16186     16181     16180     16183     16184
     16182     16180     16183     16184     16183     16184     16186     16187
     16183     16184     16186     16188     16183     16184     16186     16236
     16184     16186     16236     16237     16184     16186     16236     16238
     16184     16186     16236     16239     16185     16184     16186     16187
     16185     16184     16186     16188     16185     16184     16186     16236
     16186     16236     16239     16240     16186     16236     16239     16241
     16186     16236     16239     16242     16187     16186     16236     16237
     16187     16186     16236     16238     16187     16186     16236     16239
     16188     16186     16236     16237     16188     16186     16236     16238
     16188     16186     16236     16239     16189     16192     16195     16196
     16189     16192     16195     16197     16189     16192     16195     16198
     16190     16189     16192     16193     16190     16189     16192     16194
     16190     16189     16192     16195     16191     16189     16192     16193
     16191     16189     16192     16194     16191     16189     16192     16195
     16192     16195     16198     16199     16192     16195     16198     16200
     16192     16195     16198     16201     16193     16192     16195     16196
     16193     16192     16195     16197     16193     16192     16195     16198
     16194     16192     16195     16196     16194     16192     16195     16197
     16194     16192     16195     16198     16195     16198     16201     16202
     16195     16198     16201     16203     16195     16198     16201     16204
     16196     16195     16198     16199     16196     16195     16198     16200
     16196     16195     16198     16201     16197     16195     16198     16199
     16197     16195     16198     16200     16197     16195     16198     16201
     16198     16201     16204     16205     16198     16201     16204     16206
     16198     16201     16204     16207     16199     16198     16201     16202
     16199     16198     16201     16203     16199     16198     16201     16204
     16200     16198     16201     16202     16200     16198     16201     16203
     16200     16198     16201     16204     16201     16204     16207     16208
     16201     16204     16207     16209     16202     16201     16204     16205
     16202     16201     16204     16206     16202     16201     16204     16207
     16203     16201     16204     16205     16203     16201     16204     16206
     16203     16201     16204     16207     16204     16207     16209     16210
     16204     16207     16209     16211     16205     16204     16207     16208
     16205     16204     16207     16209     16206     16204     16207     16208
     16206     16204     16207     16209     16207     16209     16211     16212
     16207     16209     16211     16213     16207     16209     16211     16214
     16208     16207     16209     16210     16208     16207     16209     16211
     16209     16211     16214     16215     16209     16211     16214     16216
     16209     16211     16214     16217     16210     16209     16211     16212
     16210     16209     16211     16213     16210     16209     16211     16214
     16211     16214     16217     16218     16211     16214     16217     16219
     16211     16214     16217     16220     16212     16211     16214     16215
     16212     16211     16214     16216     16212     16211     16214     16217
     16213     16211     16214     16215     16213     16211     16214     16216
     16213     16211     16214     16217     16214     16217     16220     16221
     16214     16217     16220     16222     16214     16217     16220     16223
     16215     16214     16217     16218     16215     16214     16217     16219
     16215     16214     16217     16220     16216     16214     16217     16218
     16216     16214     16217     16219     16216     16214     16217     16220
     16217     16220     16223     16224     16217     16220     16223     16225
     16217     16220     16223     16226     16218     16217     16220     16221
     16218     16217     16220     16222     16218     16217     16220     16223
     16219     16217     16220     16221     16219     16217     16220     16222
     16219     16217     16220     16223     16220     16223     16226     16227
     16220     16223     16226     16228     16220     16223     16226     16229
     16221     16220     16223     16224     16221     16220     16223     16225
     16221     16220     16223     16226     16222     16220     16223     16224
     16222     16220     16223     16225     16222     16220     16223     16226
     16223     16226     16229     16230     16223     16226     16229     16231
     16223     16226     16229     16232     16224     16223     16226     16227
     16224     16223     16226     16228     16224     16223     16226     16229
     16225     16223     16226     16227     16225     16223     16226     16228
     16225     16223     16226     16229     16226     16229     16232     16233
     16226     16229     16232     16234     16226     16229     16232     16235
     16227     16226     16229     16230     16227     16226     16229     16231
     16227     16226     16229     16232     16228     16226     16229     16230
     16228     16226     16229     16231     16228     16226     16229     16232
     16230     16229     16232     16233     16230     16229     16232     16234
     16230     16229     16232     16235     16231     16229     16232     16233
     16231     16229     16232     16234     16231     16229     16232     16235
     16236     16239     16242     16243     16236     16239     16242     16244
     16236     16239     16242     16245     16237     16236     16239     16240
     16237     16236     16239     16241     16237     16236     16239     16242
     16238     16236     16239     16240     16238     16236     16239     16241
     16238     16236     16239     16242     16239     16242     16245     16246
     16239     16242     16245     16247     16239     16242     16245     16248
     16240     16239     16242     16243     16240     16239     16242     16244
     16240     16239     16242     16245     16241     16239     16242     16243
     16241     16239     16242     16244     16241     16239     16242     16245
     16242     16245     16248     16249     16242     16245     16248     16250
     16242     16245     16248     16251     16243     16242     16245     16246
     16243     16242     16245     16247     16243     16242     16245     16248
     16244     16242     16245     16246     16244     16242     16245     16247
     16244     16242     16245     16248     16245     16248     16251     16252
     16245     16248     16251     16253     16245     16248     16251     16254
     16246     16245     16248     16249     16246     16245     16248     16250
     16246     16245     16248     16251     16247     16245     16248     16249
     16247     16245     16248     16250     16247     16245     16248     16251
     16248     16251     16254     16255     16248     16251     16254     16256
     16248     16251     16254     16257     16249     16248     16251     16252
     16249     16248     16251     16253     16249     16248     16251     16254
     16250     16248     16251     16252     16250     16248     16251     16253
     16250     16248     16251     16254     16251     16254     16257     16258
     16251     16254     16257     16259     16251     16254     16257     16260
     16252     16251     16254     16255     16252     16251     16254     16256
     16252     16251     16254     16257     16253     16251     16254     16255
     16253     16251     16254     16256     16253     16251     16254     16257
     16254     16257     16260     16261     16254     16257     16260     16262
     16254     16257     16260     16263     16255     16254     16257     16258
     16255     16254     16257     16259     16255     16254     16257     16260
     16256     16254     16257     16258     16256     16254     16257     16259
     16256     16254     16257     16260     16257     16260     16263     16264
     16257     16260     16263     16265     16257     16260     16263     16266
     16258     16257     16260     16261     16258     16257     16260     16262
     16258     16257     16260     16263     16259     16257     16260     16261
     16259     16257     16260     16262     16259     16257     16260     16263
     16260     16263     16266     16267     16260     16263     16266     16268
     16260     16263     16266     16269     16261     16260     16263     16264
     16261     16260     16263     16265     16261     16260     16263     16266
     16262     16260     16263     16264     16262     16260     16263     16265
     16262     16260     16263     16266     16263     16266     16269     16270
     16263     16266     16269     16271     16263     16266     16269     16272
     16264     16263     16266     16267     16264     16263     16266     16268
     16264     16263     16266     16269     16265     16263     16266     16267
     16265     16263     16266     16268     16265     16263     16266     16269
     16266     16269     16272     16273     16266     16269     16272     16274
     16266     16269     16272     16275     16267     16266     16269     16270
     16267     16266     16269     16271     16267     16266     16269     16272
     16268     16266     16269     16270     16268     16266     16269     16271
     16268     16266     16269     16272     16269     16272     16275     16276
     16269     16272     16275     16277     16269     16272     16275     16278
     16270     16269     16272     16273     16270     16269     16272     16274
     16270     16269     16272     16275     16271     16269     16272     16273
     16271     16269     16272     16274     16271     16269     16272     16275
     16273     16272     16275     16276     16273     16272     16275     16277
     16273     16272     16275     16278     16274     16272     16275     16276
     16274     16272     16275     16277     16274     16272     16275     16278
     16279     16280     16295     16296     16279     16280     16295     16297
     16279     16280     16295     16301     16280     16279     16283     16284
     16280     16279     16283     16285     16280     16279     16283     16286
     16280     16279     16287     16288     16280     16279     16287     16289
     16280     16279     16287     16290     16280     16279     16291     16292
     16280     16279     16291     16293     16280     16279     16291     16294
     16280     16295     16301     16298     16281     16280     16279     16283
     16281     16280     16279     16287     16281     16280     16279     16291
     16281     16280     16295     16296     16281     16280     16295     16297
     16281     16280     16295     16301     16282     16280     16279     16283
     16282     16280     16279     16287     16282     16280     16279     16291
     16282     16280     16295     16296     16282     16280     16295     16297
     16282     16280     16295     16301     16283     16279     16280     16295
     16283     16279     16287     16288     16283     16279     16287     16289
     16283     16279     16287     16290     16283     16279     16291     16292
     16283     16279     16291     16293     16283     16279     16291     16294
     16284     16283     16279     16287     16284     16283     16279     16291
     16285     16283     16279     16287     16285     16283     16279     16291
     16286     16283     16279     16287     16286     16283     16279     16291
     16287     16279     16280     16295     16287     16279     16291     16292
     16287     16279     16291     16293     16287     16279     16291     16294
     16288     16287     16279     16291     16289     16287     16279     16291
     16290     16287     16279     16291     16291     16279     16280     16295
     16295     16301     16298     16299     16295     16301     16298     16300
     16295     16301     16298     16302     16296     16295     16301     16298
     16297     16295     16301     16298     16298     16302     16303     16304
     16298     16302     16303     16305     16298     16302     16303     16306
     16299     16298     16302     16303     16300     16298     16302     16303
     16301     16298     16302     16303     16302     16303     16306     16307
     16302     16303     16306     16308     16302     16303     16306     16314
     16303     16306     16308     16309     16303     16306     16314     16315
     16303     16306     16314     16316     16303     16306     16314     16317
     16304     16303     16306     16307     16304     16303     16306     16308
     16304     16303     16306     16314     16305     16303     16306     16307
     16305     16303     16306     16308     16305     16303     16306     16314
     16306     16308     16309     16310     16306     16308     16309     16311
     16306     16314     16317     16318     16307     16306     16308     16309
     16307     16306     16314     16315     16307     16306     16314     16316
     16307     16306     16314     16317     16308     16306     16314     16315
     16308     16306     16314     16316     16308     16306     16314     16317
     16308     16309     16311     16312     16308     16309     16311     16313
     16308     16309     16311     16323     16309     16308     16306     16314
     16309     16311     16323     16324     16309     16311     16323     16325
     16309     16311     16323     16326     16310     16309     16311     16312
     16310     16309     16311     16313     16310     16309     16311     16323
     16311     16323     16326     16327     16311     16323     16326     16328
     16311     16323     16326     16329     16312     16311     16323     16324
     16312     16311     16323     16325     16312     16311     16323     16326
     16313     16311     16323     16324     16313     16311     16323     16325
     16313     16311     16323     16326     16314     16317     16318     16319
     16314     16317     16318     16320     16315     16314     16317     16318
     16316     16314     16317     16318     16317     16318     16320     16321
     16317     16318     16320     16322     16317     16318     16320     16370
     16318     16320     16370     16371     16318     16320     16370     16372
     16318     16320     16370     16373     16319     16318     16320     16321
     16319     16318     16320     16322     16319     16318     16320     16370
     16320     16370     16373     16374     16320     16370     16373     16375
     16320     16370     16373     16376     16321     16320     16370     16371
     16321     16320     16370     16372     16321     16320     16370     16373
     16322     16320     16370     16371     16322     16320     16370     16372
     16322     16320     16370     16373     16323     16326     16329     16330
     16323     16326     16329     16331     16323     16326     16329     16332
     16324     16323     16326     16327     16324     16323     16326     16328
     16324     16323     16326     16329     16325     16323     16326     16327
     16325     16323     16326     16328     16325     16323     16326     16329
     16326     16329     16332     16333     16326     16329     16332     16334
     16326     16329     16332     16335     16327     16326     16329     16330
     16327     16326     16329     16331     16327     16326     16329     16332
     16328     16326     16329     16330     16328     16326     16329     16331
     16328     16326     16329     16332     16329     16332     16335     16336
     16329     16332     16335     16337     16329     16332     16335     16338
     16330     16329     16332     16333     16330     16329     16332     16334
     16330     16329     16332     16335     16331     16329     16332     16333
     16331     16329     16332     16334     16331     16329     16332     16335
     16332     16335     16338     16339     16332     16335     16338     16340
     16332     16335     16338     16341     16333     16332     16335     16336
     16333     16332     16335     16337     16333     16332     16335     16338
     16334     16332     16335     16336     16334     16332     16335     16337
     16334     16332     16335     16338     16335     16338     16341     16342
     16335     16338     16341     16343     16336     16335     16338     16339
     16336     16335     16338     16340     16336     16335     16338     16341
     16337     16335     16338     16339     16337     16335     16338     16340
     16337     16335     16338     16341     16338     16341     16343     16344
     16338     16341     16343     16345     16339     16338     16341     16342
     16339     16338     16341     16343     16340     16338     16341     16342
     16340     16338     16341     16343     16341     16343     16345     16346
     16341     16343     16345     16347     16341     16343     16345     16348
     16342     16341     16343     16344     16342     16341     16343     16345
     16343     16345     16348     16349     16343     16345     16348     16350
     16343     16345     16348     16351     16344     16343     16345     16346
     16344     16343     16345     16347     16344     16343     16345     16348
     16345     16348     16351     16352     16345     16348     16351     16353
     16345     16348     16351     16354     16346     16345     16348     16349
     16346     16345     16348     16350     16346     16345     16348     16351
     16347     16345     16348     16349     16347     16345     16348     16350
     16347     16345     16348     16351     16348     16351     16354     16355
     16348     16351     16354     16356     16348     16351     16354     16357
     16349     16348     16351     16352     16349     16348     16351     16353
     16349     16348     16351     16354     16350     16348     16351     16352
     16350     16348     16351     16353     16350     16348     16351     16354
     16351     16354     16357     16358     16351     16354     16357     16359
     16351     16354     16357     16360     16352     16351     16354     16355
     16352     16351     16354     16356     16352     16351     16354     16357
     16353     16351     16354     16355     16353     16351     16354     16356
     16353     16351     16354     16357     16354     16357     16360     16361
     16354     16357     16360     16362     16354     16357     16360     16363
     16355     16354     16357     16358     16355     16354     16357     16359
     16355     16354     16357     16360     16356     16354     16357     16358
     16356     16354     16357     16359     16356     16354     16357     16360
     16357     16360     16363     16364     16357     16360     16363     16365
     16357     16360     16363     16366     16358     16357     16360     16361
     16358     16357     16360     16362     16358     16357     16360     16363
     16359     16357     16360     16361     16359     16357     16360     16362
     16359     16357     16360     16363     16360     16363     16366     16367
     16360     16363     16366     16368     16360     16363     16366     16369
     16361     16360     16363     16364     16361     16360     16363     16365
     16361     16360     16363     16366     16362     16360     16363     16364
     16362     16360     16363     16365     16362     16360     16363     16366
     16364     16363     16366     16367     16364     16363     16366     16368
     16364     16363     16366     16369     16365     16363     16366     16367
     16365     16363     16366     16368     16365     16363     16366     16369
     16370     16373     16376     16377     16370     16373     16376     16378
     16370     16373     16376     16379     16371     16370     16373     16374
     16371     16370     16373     16375     16371     16370     16373     16376
     16372     16370     16373     16374     16372     16370     16373     16375
     16372     16370     16373     16376     16373     16376     16379     16380
     16373     16376     16379     16381     16373     16376     16379     16382
     16374     16373     16376     16377     16374     16373     16376     16378
     16374     16373     16376     16379     16375     16373     16376     16377
     16375     16373     16376     16378     16375     16373     16376     16379
     16376     16379     16382     16383     16376     16379     16382     16384
     16376     16379     16382     16385     16377     16376     16379     16380
     16377     16376     16379     16381     16377     16376     16379     16382
     16378     16376     16379     16380     16378     16376     16379     16381
     16378     16376     16379     16382     16379     16382     16385     16386
     16379     16382     16385     16387     16379     16382     16385     16388
     16380     16379     16382     16383     16380     16379     16382     16384
     16380     16379     16382     16385     16381     16379     16382     16383
     16381     16379     16382     16384     16381     16379     16382     16385
     16382     16385     16388     16389     16382     16385     16388     16390
     16382     16385     16388     16391     16383     16382     16385     16386
     16383     16382     16385     16387     16383     16382     16385     16388
     16384     16382     16385     16386     16384     16382     16385     16387
     16384     16382     16385     16388     16385     16388     16391     16392
     16385     16388     16391     16393     16385     16388     16391     16394
     16386     16385     16388     16389     16386     16385     16388     16390
     16386     16385     16388     16391     16387     16385     16388     16389
     16387     16385     16388     16390     16387     16385     16388     16391
     16388     16391     16394     16395     16388     16391     16394     16396
     16388     16391     16394     16397     16389     16388     16391     16392
     16389     16388     16391     16393     16389     16388     16391     16394
     16390     16388     16391     16392     16390     16388     16391     16393
     16390     16388     16391     16394     16391     16394     16397     16398
     16391     16394     16397     16399     16391     16394     16397     16400
     16392     16391     16394     16395     16392     16391     16394     16396
     16392     16391     16394     16397     16393     16391     16394     16395
     16393     16391     16394     16396     16393     16391     16394     16397
     16394     16397     16400     16401     16394     16397     16400     16402
     16394     16397     16400     16403     16395     16394     16397     16398
     16395     16394     16397     16399     16395     16394     16397     16400
     16396     16394     16397     16398     16396     16394     16397     16399
     16396     16394     16397     16400     16397     16400     16403     16404
     16397     16400     16403     16405     16397     16400     16403     16406
     16398     16397     16400     16401     16398     16397     16400     16402
     16398     16397     16400     16403     16399     16397     16400     16401
     16399     16397     16400     16402     16399     16397     16400     16403
     16400     16403     16406     16407     16400     16403     16406     16408
     16400     16403     16406     16409     16401     16400     16403     16404
     16401     16400     16403     16405     16401     16400     16403     16406
     16402     16400     16403     16404     16402     16400     16403     16405
     16402     16400     16403     16406     16403     16406     16409     16410
     16403     16406     16409     16411     16403     16406     16409     16412
     16404     16403     16406     16407     16404     16403     16406     16408
     16404     16403     16406     16409     16405     16403     16406     16407
     16405     16403     16406     16408     16405     16403     16406     16409
     16407     16406     16409     16410     16407     16406     16409     16411
     16407     16406     16409     16412     16408     16406     16409     16410
     16408     16406     16409     16411     16408     16406     16409     16412
     16413     16414     16429     16430     16413     16414     16429     16431
     16413     16414     16429     16435     16414     16413     16417     16418
     16414     16413     16417     16419     16414     16413     16417     16420
     16414     16413     16421     16422     16414     16413     16421     16423
     16414     16413     16421     16424     16414     16413     16425     16426
     16414     16413     16425     16427     16414     16413     16425     16428
     16414     16429     16435     16432     16415     16414     16413     16417
     16415     16414     16413     16421     16415     16414     16413     16425
     16415     16414     16429     16430     16415     16414     16429     16431
     16415     16414     16429     16435     16416     16414     16413     16417
     16416     16414     16413     16421     16416     16414     16413     16425
     16416     16414     16429     16430     16416     16414     16429     16431
     16416     16414     16429     16435     16417     16413     16414     16429
     16417     16413     16421     16422     16417     16413     16421     16423
     16417     16413     16421     16424     16417     16413     16425     16426
     16417     16413     16425     16427     16417     16413     16425     16428
     16418     16417     16413     16421     16418     16417     16413     16425
     16419     16417     16413     16421     16419     16417     16413     16425
     16420     16417     16413     16421     16420     16417     16413     16425
     16421     16413     16414     16429     16421     16413     16425     16426
     16421     16413     16425     16427     16421     16413     16425     16428
     16422     16421     16413     16425     16423     16421     16413     16425
     16424     16421     16413     16425     16425     16413     16414     16429
     16429     16435     16432     16433     16429     16435     16432     16434
     16429     16435     16432     16436     16430     16429     16435     16432
     16431     16429     16435     16432     16432     16436     16437     16438
     16432     16436     16437     16439     16432     16436     16437     16440
     16433     16432     16436     16437     16434     16432     16436     16437
     16435     16432     16436     16437     16436     16437     16440     16441
     16436     16437     16440     16442     16436     16437     16440     16448
     16437     16440     16442     16443     16437     16440     16448     16449
     16437     16440     16448     16450     16437     16440     16448     16451
     16438     16437     16440     16441     16438     16437     16440     16442
     16438     16437     16440     16448     16439     16437     16440     16441
     16439     16437     16440     16442     16439     16437     16440     16448
     16440     16442     16443     16444     16440     16442     16443     16445
     16440     16448     16451     16452     16441     16440     16442     16443
     16441     16440     16448     16449     16441     16440     16448     16450
     16441     16440     16448     16451     16442     16440     16448     16449
     16442     16440     16448     16450     16442     16440     16448     16451
     16442     16443     16445     16446     16442     16443     16445     16447
     16442     16443     16445     16457     16443     16442     16440     16448
     16443     16445     16457     16458     16443     16445     16457     16459
     16443     16445     16457     16460     16444     16443     16445     16446
     16444     16443     16445     16447     16444     16443     16445     16457
     16445     16457     16460     16461     16445     16457     16460     16462
     16445     16457     16460     16463     16446     16445     16457     16458
     16446     16445     16457     16459     16446     16445     16457     16460
     16447     16445     16457     16458     16447     16445     16457     16459
     16447     16445     16457     16460     16448     16451     16452     16453
     16448     16451     16452     16454     16449     16448     16451     16452
     16450     16448     16451     16452     16451     16452     16454     16455
     16451     16452     16454     16456     16451     16452     16454     16504
     16452     16454     16504     16505     16452     16454     16504     16506
     16452     16454     16504     16507     16453     16452     16454     16455
     16453     16452     16454     16456     16453     16452     16454     16504
     16454     16504     16507     16508     16454     16504     16507     16509
     16454     16504     16507     16510     16455     16454     16504     16505
     16455     16454     16504     16506     16455     16454     16504     16507
     16456     16454     16504     16505     16456     16454     16504     16506
     16456     16454     16504     16507     16457     16460     16463     16464
     16457     16460     16463     16465     16457     16460     16463     16466
     16458     16457     16460     16461     16458     16457     16460     16462
     16458     16457     16460     16463     16459     16457     16460     16461
     16459     16457     16460     16462     16459     16457     16460     16463
     16460     16463     16466     16467     16460     16463     16466     16468
     16460     16463     16466     16469     16461     16460     16463     16464
     16461     16460     16463     16465     16461     16460     16463     16466
     16462     16460     16463     16464     16462     16460     16463     16465
     16462     16460     16463     16466     16463     16466     16469     16470
     16463     16466     16469     16471     16463     16466     16469     16472
     16464     16463     16466     16467     16464     16463     16466     16468
     16464     16463     16466     16469     16465     16463     16466     16467
     16465     16463     16466     16468     16465     16463     16466     16469
     16466     16469     16472     16473     16466     16469     16472     16474
     16466     16469     16472     16475     16467     16466     16469     16470
     16467     16466     16469     16471     16467     16466     16469     16472
     16468     16466     16469     16470     16468     16466     16469     16471
     16468     16466     16469     16472     16469     16472     16475     16476
     16469     16472     16475     16477     16470     16469     16472     16473
     16470     16469     16472     16474     16470     16469     16472     16475
     16471     16469     16472     16473     16471     16469     16472     16474
     16471     16469     16472     16475     16472     16475     16477     16478
     16472     16475     16477     16479     16473     16472     16475     16476
     16473     16472     16475     16477     16474     16472     16475     16476
     16474     16472     16475     16477     16475     16477     16479     16480
     16475     16477     16479     16481     16475     16477     16479     16482
     16476     16475     16477     16478     16476     16475     16477     16479
     16477     16479     16482     16483     16477     16479     16482     16484
     16477     16479     16482     16485     16478     16477     16479     16480
     16478     16477     16479     16481     16478     16477     16479     16482
     16479     16482     16485     16486     16479     16482     16485     16487
     16479     16482     16485     16488     16480     16479     16482     16483
     16480     16479     16482     16484     16480     16479     16482     16485
     16481     16479     16482     16483     16481     16479     16482     16484
     16481     16479     16482     16485     16482     16485     16488     16489
     16482     16485     16488     16490     16482     16485     16488     16491
     16483     16482     16485     16486     16483     16482     16485     16487
     16483     16482     16485     16488     16484     16482     16485     16486
     16484     16482     16485     16487     16484     16482     16485     16488
     16485     16488     16491     16492     16485     16488     16491     16493
     16485     16488     16491     16494     16486     16485     16488     16489
     16486     16485     16488     16490     16486     16485     16488     16491
     16487     16485     16488     16489     16487     16485     16488     16490
     16487     16485     16488     16491     16488     16491     16494     16495
     16488     16491     16494     16496     16488     16491     16494     16497
     16489     16488     16491     16492     16489     16488     16491     16493
     16489     16488     16491     16494     16490     16488     16491     16492
     16490     16488     16491     16493     16490     16488     16491     16494
     16491     16494     16497     16498     16491     16494     16497     16499
     16491     16494     16497     16500     16492     16491     16494     16495
     16492     16491     16494     16496     16492     16491     16494     16497
     16493     16491     16494     16495     16493     16491     16494     16496
     16493     16491     16494     16497     16494     16497     16500     16501
     16494     16497     16500     16502     16494     16497     16500     16503
     16495     16494     16497     16498     16495     16494     16497     16499
     16495     16494     16497     16500     16496     16494     16497     16498
     16496     16494     16497     16499     16496     16494     16497     16500
     16498     16497     16500     16501     16498     16497     16500     16502
     16498     16497     16500     16503     16499     16497     16500     16501
     16499     16497     16500     16502     16499     16497     16500     16503
     16504     16507     16510     16511     16504     16507     16510     16512
     16504     16507     16510     16513     16505     16504     16507     16508
     16505     16504     16507     16509     16505     16504     16507     16510
     16506     16504     16507     16508     16506     16504     16507     16509
     16506     16504     16507     16510     16507     16510     16513     16514
     16507     16510     16513     16515     16507     16510     16513     16516
     16508     16507     16510     16511     16508     16507     16510     16512
     16508     16507     16510     16513     16509     16507     16510     16511
     16509     16507     16510     16512     16509     16507     16510     16513
     16510     16513     16516     16517     16510     16513     16516     16518
     16510     16513     16516     16519     16511     16510     16513     16514
     16511     16510     16513     16515     16511     16510     16513     16516
     16512     16510     16513     16514     16512     16510     16513     16515
     16512     16510     16513     16516     16513     16516     16519     16520
     16513     16516     16519     16521     16513     16516     16519     16522
     16514     16513     16516     16517     16514     16513     16516     16518
     16514     16513     16516     16519     16515     16513     16516     16517
     16515     16513     16516     16518     16515     16513     16516     16519
     16516     16519     16522     16523     16516     16519     16522     16524
     16516     16519     16522     16525     16517     16516     16519     16520
     16517     16516     16519     16521     16517     16516     16519     16522
     16518     16516     16519     16520     16518     16516     16519     16521
     16518     16516     16519     16522     16519     16522     16525     16526
     16519     16522     16525     16527     16519     16522     16525     16528
     16520     16519     16522     16523     16520     16519     16522     16524
     16520     16519     16522     16525     16521     16519     16522     16523
     16521     16519     16522     16524     16521     16519     16522     16525
     16522     16525     16528     16529     16522     16525     16528     16530
     16522     16525     16528     16531     16523     16522     16525     16526
     16523     16522     16525     16527     16523     16522     16525     16528
     16524     16522     16525     16526     16524     16522     16525     16527
     16524     16522     16525     16528     16525     16528     16531     16532
     16525     16528     16531     16533     16525     16528     16531     16534
     16526     16525     16528     16529     16526     16525     16528     16530
     16526     16525     16528     16531     16527     16525     16528     16529
     16527     16525     16528     16530     16527     16525     16528     16531
     16528     16531     16534     16535     16528     16531     16534     16536
     16528     16531     16534     16537     16529     16528     16531     16532
     16529     16528     16531     16533     16529     16528     16531     16534
     16530     16528     16531     16532     16530     16528     16531     16533
     16530     16528     16531     16534     16531     16534     16537     16538
     16531     16534     16537     16539     16531     16534     16537     16540
     16532     16531     16534     16535     16532     16531     16534     16536
     16532     16531     16534     16537     16533     16531     16534     16535
     16533     16531     16534     16536     16533     16531     16534     16537
     16534     16537     16540     16541     16534     16537     16540     16542
     16534     16537     16540     16543     16535     16534     16537     16538
     16535     16534     16537     16539     16535     16534     16537     16540
     16536     16534     16537     16538     16536     16534     16537     16539
     16536     16534     16537     16540     16537     16540     16543     16544
     16537     16540     16543     16545     16537     16540     16543     16546
     16538     16537     16540     16541     16538     16537     16540     16542
     16538     16537     16540     16543     16539     16537     16540     16541
     16539     16537     16540     16542     16539     16537     16540     16543
     16541     16540     16543     16544     16541     16540     16543     16545
     16541     16540     16543     16546     16542     16540     16543     16544
     16542     16540     16543     16545     16542     16540     16543     16546
     16547     16548     16563     16564     16547     16548     16563     16565
     16547     16548     16563     16569     16548     16547     16551     16552
     16548     16547     16551     16553     16548     16547     16551     16554
     16548     16547     16555     16556     16548     16547     16555     16557
     16548     16547     16555     16558     16548     16547     16559     16560
     16548     16547     16559     16561     16548     16547     16559     16562
     16548     16563     16569     16566     16549     16548     16547     16551
     16549     16548     16547     16555     16549     16548     16547     16559
     16549     16548     16563     16564     16549     16548     16563     16565
     16549     16548     16563     16569     16550     16548     16547     16551
     16550     16548     16547     16555     16550     16548     16547     16559
     16550     16548     16563     16564     16550     16548     16563     16565
     16550     16548     16563     16569     16551     16547     16548     16563
     16551     16547     16555     16556     16551     16547     16555     16557
     16551     16547     16555     16558     16551     16547     16559     16560
     16551     16547     16559     16561     16551     16547     16559     16562
     16552     16551     16547     16555     16552     16551     16547     16559
     16553     16551     16547     16555     16553     16551     16547     16559
     16554     16551     16547     16555     16554     16551     16547     16559
     16555     16547     16548     16563     16555     16547     16559     16560
     16555     16547     16559     16561     16555     16547     16559     16562
     16556     16555     16547     16559     16557     16555     16547     16559
     16558     16555     16547     16559     16559     16547     16548     16563
     16563     16569     16566     16567     16563     16569     16566     16568
     16563     16569     16566     16570     16564     16563     16569     16566
     16565     16563     16569     16566     16566     16570     16571     16572
     16566     16570     16571     16573     16566     16570     16571     16574
     16567     16566     16570     16571     16568     16566     16570     16571
     16569     16566     16570     16571     16570     16571     16574     16575
     16570     16571     16574     16576     16570     16571     16574     16582
     16571     16574     16576     16577     16571     16574     16582     16583
     16571     16574     16582     16584     16571     16574     16582     16585
     16572     16571     16574     16575     16572     16571     16574     16576
     16572     16571     16574     16582     16573     16571     16574     16575
     16573     16571     16574     16576     16573     16571     16574     16582
     16574     16576     16577     16578     16574     16576     16577     16579
     16574     16582     16585     16586     16575     16574     16576     16577
     16575     16574     16582     16583     16575     16574     16582     16584
     16575     16574     16582     16585     16576     16574     16582     16583
     16576     16574     16582     16584     16576     16574     16582     16585
     16576     16577     16579     16580     16576     16577     16579     16581
     16576     16577     16579     16591     16577     16576     16574     16582
     16577     16579     16591     16592     16577     16579     16591     16593
     16577     16579     16591     16594     16578     16577     16579     16580
     16578     16577     16579     16581     16578     16577     16579     16591
     16579     16591     16594     16595     16579     16591     16594     16596
     16579     16591     16594     16597     16580     16579     16591     16592
     16580     16579     16591     16593     16580     16579     16591     16594
     16581     16579     16591     16592     16581     16579     16591     16593
     16581     16579     16591     16594     16582     16585     16586     16587
     16582     16585     16586     16588     16583     16582     16585     16586
     16584     16582     16585     16586     16585     16586     16588     16589
     16585     16586     16588     16590     16585     16586     16588     16638
     16586     16588     16638     16639     16586     16588     16638     16640
     16586     16588     16638     16641     16587     16586     16588     16589
     16587     16586     16588     16590     16587     16586     16588     16638
     16588     16638     16641     16642     16588     16638     16641     16643
     16588     16638     16641     16644     16589     16588     16638     16639
     16589     16588     16638     16640     16589     16588     16638     16641
     16590     16588     16638     16639     16590     16588     16638     16640
     16590     16588     16638     16641     16591     16594     16597     16598
     16591     16594     16597     16599     16591     16594     16597     16600
     16592     16591     16594     16595     16592     16591     16594     16596
     16592     16591     16594     16597     16593     16591     16594     16595
     16593     16591     16594     16596     16593     16591     16594     16597
     16594     16597     16600     16601     16594     16597     16600     16602
     16594     16597     16600     16603     16595     16594     16597     16598
     16595     16594     16597     16599     16595     16594     16597     16600
     16596     16594     16597     16598     16596     16594     16597     16599
     16596     16594     16597     16600     16597     16600     16603     16604
     16597     16600     16603     16605     16597     16600     16603     16606
     16598     16597     16600     16601     16598     16597     16600     16602
     16598     16597     16600     16603     16599     16597     16600     16601
     16599     16597     16600     16602     16599     16597     16600     16603
     16600     16603     16606     16607     16600     16603     16606     16608
     16600     16603     16606     16609     16601     16600     16603     16604
     16601     16600     16603     16605     16601     16600     16603     16606
     16602     16600     16603     16604     16602     16600     16603     16605
     16602     16600     16603     16606     16603     16606     16609     16610
     16603     16606     16609     16611     16604     16603     16606     16607
     16604     16603     16606     16608     16604     16603     16606     16609
     16605     16603     16606     16607     16605     16603     16606     16608
     16605     16603     16606     16609     16606     16609     16611     16612
     16606     16609     16611     16613     16607     16606     16609     16610
     16607     16606     16609     16611     16608     16606     16609     16610
     16608     16606     16609     16611     16609     16611     16613     16614
     16609     16611     16613     16615     16609     16611     16613     16616
     16610     16609     16611     16612     16610     16609     16611     16613
     16611     16613     16616     16617     16611     16613     16616     16618
     16611     16613     16616     16619     16612     16611     16613     16614
     16612     16611     16613     16615     16612     16611     16613     16616
     16613     16616     16619     16620     16613     16616     16619     16621
     16613     16616     16619     16622     16614     16613     16616     16617
     16614     16613     16616     16618     16614     16613     16616     16619
     16615     16613     16616     16617     16615     16613     16616     16618
     16615     16613     16616     16619     16616     16619     16622     16623
     16616     16619     16622     16624     16616     16619     16622     16625
     16617     16616     16619     16620     16617     16616     16619     16621
     16617     16616     16619     16622     16618     16616     16619     16620
     16618     16616     16619     16621     16618     16616     16619     16622
     16619     16622     16625     16626     16619     16622     16625     16627
     16619     16622     16625     16628     16620     16619     16622     16623
     16620     16619     16622     16624     16620     16619     16622     16625
     16621     16619     16622     16623     16621     16619     16622     16624
     16621     16619     16622     16625     16622     16625     16628     16629
     16622     16625     16628     16630     16622     16625     16628     16631
     16623     16622     16625     16626     16623     16622     16625     16627
     16623     16622     16625     16628     16624     16622     16625     16626
     16624     16622     16625     16627     16624     16622     16625     16628
     16625     16628     16631     16632     16625     16628     16631     16633
     16625     16628     16631     16634     16626     16625     16628     16629
     16626     16625     16628     16630     16626     16625     16628     16631
     16627     16625     16628     16629     16627     16625     16628     16630
     16627     16625     16628     16631     16628     16631     16634     16635
     16628     16631     16634     16636     16628     16631     16634     16637
     16629     16628     16631     16632     16629     16628     16631     16633
     16629     16628     16631     16634     16630     16628     16631     16632
     16630     16628     16631     16633     16630     16628     16631     16634
     16632     16631     16634     16635     16632     16631     16634     16636
     16632     16631     16634     16637     16633     16631     16634     16635
     16633     16631     16634     16636     16633     16631     16634     16637
     16638     16641     16644     16645     16638     16641     16644     16646
     16638     16641     16644     16647     16639     16638     16641     16642
     16639     16638     16641     16643     16639     16638     16641     16644
     16640     16638     16641     16642     16640     16638     16641     16643
     16640     16638     16641     16644     16641     16644     16647     16648
     16641     16644     16647     16649     16641     16644     16647     16650
     16642     16641     16644     16645     16642     16641     16644     16646
     16642     16641     16644     16647     16643     16641     16644     16645
     16643     16641     16644     16646     16643     16641     16644     16647
     16644     16647     16650     16651     16644     16647     16650     16652
     16644     16647     16650     16653     16645     16644     16647     16648
     16645     16644     16647     16649     16645     16644     16647     16650
     16646     16644     16647     16648     16646     16644     16647     16649
     16646     16644     16647     16650     16647     16650     16653     16654
     16647     16650     16653     16655     16647     16650     16653     16656
     16648     16647     16650     16651     16648     16647     16650     16652
     16648     16647     16650     16653     16649     16647     16650     16651
     16649     16647     16650     16652     16649     16647     16650     16653
     16650     16653     16656     16657     16650     16653     16656     16658
     16650     16653     16656     16659     16651     16650     16653     16654
     16651     16650     16653     16655     16651     16650     16653     16656
     16652     16650     16653     16654     16652     16650     16653     16655
     16652     16650     16653     16656     16653     16656     16659     16660
     16653     16656     16659     16661     16653     16656     16659     16662
     16654     16653     16656     16657     16654     16653     16656     16658
     16654     16653     16656     16659     16655     16653     16656     16657
     16655     16653     16656     16658     16655     16653     16656     16659
     16656     16659     16662     16663     16656     16659     16662     16664
     16656     16659     16662     16665     16657     16656     16659     16660
     16657     16656     16659     16661     16657     16656     16659     16662
     16658     16656     16659     16660     16658     16656     16659     16661
     16658     16656     16659     16662     16659     16662     16665     16666
     16659     16662     16665     16667     16659     16662     16665     16668
     16660     16659     16662     16663     16660     16659     16662     16664
     16660     16659     16662     16665     16661     16659     16662     16663
     16661     16659     16662     16664     16661     16659     16662     16665
     16662     16665     16668     16669     16662     16665     16668     16670
     16662     16665     16668     16671     16663     16662     16665     16666
     16663     16662     16665     16667     16663     16662     16665     16668
     16664     16662     16665     16666     16664     16662     16665     16667
     16664     16662     16665     16668     16665     16668     16671     16672
     16665     16668     16671     16673     16665     16668     16671     16674
     16666     16665     16668     16669     16666     16665     16668     16670
     16666     16665     16668     16671     16667     16665     16668     16669
     16667     16665     16668     16670     16667     16665     16668     16671
     16668     16671     16674     16675     16668     16671     16674     16676
     16668     16671     16674     16677     16669     16668     16671     16672
     16669     16668     16671     16673     16669     16668     16671     16674
     16670     16668     16671     16672     16670     16668     16671     16673
     16670     16668     16671     16674     16671     16674     16677     16678
     16671     16674     16677     16679     16671     16674     16677     16680
     16672     16671     16674     16675     16672     16671     16674     16676
     16672     16671     16674     16677     16673     16671     16674     16675
     16673     16671     16674     16676     16673     16671     16674     16677
     16675     16674     16677     16678     16675     16674     16677     16679
     16675     16674     16677     16680     16676     16674     16677     16678
     16676     16674     16677     16679     16676     16674     16677     16680
     16681     16682     16697     16698     16681     16682     16697     16699
     16681     16682     16697     16703     16682     16681     16685     16686
     16682     16681     16685     16687     16682     16681     16685     16688
     16682     16681     16689     16690     16682     16681     16689     16691
     16682     16681     16689     16692     16682     16681     16693     16694
     16682     16681     16693     16695     16682     16681     16693     16696
     16682     16697     16703     16700     16683     16682     16681     16685
     16683     16682     16681     16689     16683     16682     16681     16693
     16683     16682     16697     16698     16683     16682     16697     16699
     16683     16682     16697     16703     16684     16682     16681     16685
     16684     16682     16681     16689     16684     16682     16681     16693
     16684     16682     16697     16698     16684     16682     16697     16699
     16684     16682     16697     16703     16685     16681     16682     16697
     16685     16681     16689     16690     16685     16681     16689     16691
     16685     16681     16689     16692     16685     16681     16693     16694
     16685     16681     16693     16695     16685     16681     16693     16696
     16686     16685     16681     16689     16686     16685     16681     16693
     16687     16685     16681     16689     16687     16685     16681     16693
     16688     16685     16681     16689     16688     16685     16681     16693
     16689     16681     16682     16697     16689     16681     16693     16694
     16689     16681     16693     16695     16689     16681     16693     16696
     16690     16689     16681     16693     16691     16689     16681     16693
     16692     16689     16681     16693     16693     16681     16682     16697
     16697     16703     16700     16701     16697     16703     16700     16702
     16697     16703     16700     16704     16698     16697     16703     16700
     16699     16697     16703     16700     16700     16704     16705     16706
     16700     16704     16705     16707     16700     16704     16705     16708
     16701     16700     16704     16705     16702     16700     16704     16705
     16703     16700     16704     16705     16704     16705     16708     16709
     16704     16705     16708     16710     16704     16705     16708     16716
     16705     16708     16710     16711     16705     16708     16716     16717
     16705     16708     16716     16718     16705     16708     16716     16719
     16706     16705     16708     16709     16706     16705     16708     16710
     16706     16705     16708     16716     16707     16705     16708     16709
     16707     16705     16708     16710     16707     16705     16708     16716
     16708     16710     16711     16712     16708     16710     16711     16713
     16708     16716     16719     16720     16709     16708     16710     16711
     16709     16708     16716     16717     16709     16708     16716     16718
     16709     16708     16716     16719     16710     16708     16716     16717
     16710     16708     16716     16718     16710     16708     16716     16719
     16710     16711     16713     16714     16710     16711     16713     16715
     16710     16711     16713     16725     16711     16710     16708     16716
     16711     16713     16725     16726     16711     16713     16725     16727
     16711     16713     16725     16728     16712     16711     16713     16714
     16712     16711     16713     16715     16712     16711     16713     16725
     16713     16725     16728     16729     16713     16725     16728     16730
     16713     16725     16728     16731     16714     16713     16725     16726
     16714     16713     16725     16727     16714     16713     16725     16728
     16715     16713     16725     16726     16715     16713     16725     16727
     16715     16713     16725     16728     16716     16719     16720     16721
     16716     16719     16720     16722     16717     16716     16719     16720
     16718     16716     16719     16720     16719     16720     16722     16723
     16719     16720     16722     16724     16719     16720     16722     16772
     16720     16722     16772     16773     16720     16722     16772     16774
     16720     16722     16772     16775     16721     16720     16722     16723
     16721     16720     16722     16724     16721     16720     16722     16772
     16722     16772     16775     16776     16722     16772     16775     16777
     16722     16772     16775     16778     16723     16722     16772     16773
     16723     16722     16772     16774     16723     16722     16772     16775
     16724     16722     16772     16773     16724     16722     16772     16774
     16724     16722     16772     16775     16725     16728     16731     16732
     16725     16728     16731     16733     16725     16728     16731     16734
     16726     16725     16728     16729     16726     16725     16728     16730
     16726     16725     16728     16731     16727     16725     16728     16729
     16727     16725     16728     16730     16727     16725     16728     16731
     16728     16731     16734     16735     16728     16731     16734     16736
     16728     16731     16734     16737     16729     16728     16731     16732
     16729     16728     16731     16733     16729     16728     16731     16734
     16730     16728     16731     16732     16730     16728     16731     16733
     16730     16728     16731     16734     16731     16734     16737     16738
     16731     16734     16737     16739     16731     16734     16737     16740
     16732     16731     16734     16735     16732     16731     16734     16736
     16732     16731     16734     16737     16733     16731     16734     16735
     16733     16731     16734     16736     16733     16731     16734     16737
     16734     16737     16740     16741     16734     16737     16740     16742
     16734     16737     16740     16743     16735     16734     16737     16738
     16735     16734     16737     16739     16735     16734     16737     16740
     16736     16734     16737     16738     16736     16734     16737     16739
     16736     16734     16737     16740     16737     16740     16743     16744
     16737     16740     16743     16745     16738     16737     16740     16741
     16738     16737     16740     16742     16738     16737     16740     16743
     16739     16737     16740     16741     16739     16737     16740     16742
     16739     16737     16740     16743     16740     16743     16745     16746
     16740     16743     16745     16747     16741     16740     16743     16744
     16741     16740     16743     16745     16742     16740     16743     16744
     16742     16740     16743     16745     16743     16745     16747     16748
     16743     16745     16747     16749     16743     16745     16747     16750
     16744     16743     16745     16746     16744     16743     16745     16747
     16745     16747     16750     16751     16745     16747     16750     16752
     16745     16747     16750     16753     16746     16745     16747     16748
     16746     16745     16747     16749     16746     16745     16747     16750
     16747     16750     16753     16754     16747     16750     16753     16755
     16747     16750     16753     16756     16748     16747     16750     16751
     16748     16747     16750     16752     16748     16747     16750     16753
     16749     16747     16750     16751     16749     16747     16750     16752
     16749     16747     16750     16753     16750     16753     16756     16757
     16750     16753     16756     16758     16750     16753     16756     16759
     16751     16750     16753     16754     16751     16750     16753     16755
     16751     16750     16753     16756     16752     16750     16753     16754
     16752     16750     16753     16755     16752     16750     16753     16756
     16753     16756     16759     16760     16753     16756     16759     16761
     16753     16756     16759     16762     16754     16753     16756     16757
     16754     16753     16756     16758     16754     16753     16756     16759
     16755     16753     16756     16757     16755     16753     16756     16758
     16755     16753     16756     16759     16756     16759     16762     16763
     16756     16759     16762     16764     16756     16759     16762     16765
     16757     16756     16759     16760     16757     16756     16759     16761
     16757     16756     16759     16762     16758     16756     16759     16760
     16758     16756     16759     16761     16758     16756     16759     16762
     16759     16762     16765     16766     16759     16762     16765     16767
     16759     16762     16765     16768     16760     16759     16762     16763
     16760     16759     16762     16764     16760     16759     16762     16765
     16761     16759     16762     16763     16761     16759     16762     16764
     16761     16759     16762     16765     16762     16765     16768     16769
     16762     16765     16768     16770     16762     16765     16768     16771
     16763     16762     16765     16766     16763     16762     16765     16767
     16763     16762     16765     16768     16764     16762     16765     16766
     16764     16762     16765     16767     16764     16762     16765     16768
     16766     16765     16768     16769     16766     16765     16768     16770
     16766     16765     16768     16771     16767     16765     16768     16769
     16767     16765     16768     16770     16767     16765     16768     16771
     16772     16775     16778     16779     16772     16775     16778     16780
     16772     16775     16778     16781     16773     16772     16775     16776
     16773     16772     16775     16777     16773     16772     16775     16778
     16774     16772     16775     16776     16774     16772     16775     16777
     16774     16772     16775     16778     16775     16778     16781     16782
     16775     16778     16781     16783     16775     16778     16781     16784
     16776     16775     16778     16779     16776     16775     16778     16780
     16776     16775     16778     16781     16777     16775     16778     16779
     16777     16775     16778     16780     16777     16775     16778     16781
     16778     16781     16784     16785     16778     16781     16784     16786
     16778     16781     16784     16787     16779     16778     16781     16782
     16779     16778     16781     16783     16779     16778     16781     16784
     16780     16778     16781     16782     16780     16778     16781     16783
     16780     16778     16781     16784     16781     16784     16787     16788
     16781     16784     16787     16789     16781     16784     16787     16790
     16782     16781     16784     16785     16782     16781     16784     16786
     16782     16781     16784     16787     16783     16781     16784     16785
     16783     16781     16784     16786     16783     16781     16784     16787
     16784     16787     16790     16791     16784     16787     16790     16792
     16784     16787     16790     16793     16785     16784     16787     16788
     16785     16784     16787     16789     16785     16784     16787     16790
     16786     16784     16787     16788     16786     16784     16787     16789
     16786     16784     16787     16790     16787     16790     16793     16794
     16787     16790     16793     16795     16787     16790     16793     16796
     16788     16787     16790     16791     16788     16787     16790     16792
     16788     16787     16790     16793     16789     16787     16790     16791
     16789     16787     16790     16792     16789     16787     16790     16793
     16790     16793     16796     16797     16790     16793     16796     16798
     16790     16793     16796     16799     16791     16790     16793     16794
     16791     16790     16793     16795     16791     16790     16793     16796
     16792     16790     16793     16794     16792     16790     16793     16795
     16792     16790     16793     16796     16793     16796     16799     16800
     16793     16796     16799     16801     16793     16796     16799     16802
     16794     16793     16796     16797     16794     16793     16796     16798
     16794     16793     16796     16799     16795     16793     16796     16797
     16795     16793     16796     16798     16795     16793     16796     16799
     16796     16799     16802     16803     16796     16799     16802     16804
     16796     16799     16802     16805     16797     16796     16799     16800
     16797     16796     16799     16801     16797     16796     16799     16802
     16798     16796     16799     16800     16798     16796     16799     16801
     16798     16796     16799     16802     16799     16802     16805     16806
     16799     16802     16805     16807     16799     16802     16805     16808
     16800     16799     16802     16803     16800     16799     16802     16804
     16800     16799     16802     16805     16801     16799     16802     16803
     16801     16799     16802     16804     16801     16799     16802     16805
     16802     16805     16808     16809     16802     16805     16808     16810
     16802     16805     16808     16811     16803     16802     16805     16806
     16803     16802     16805     16807     16803     16802     16805     16808
     16804     16802     16805     16806     16804     16802     16805     16807
     16804     16802     16805     16808     16805     16808     16811     16812
     16805     16808     16811     16813     16805     16808     16811     16814
     16806     16805     16808     16809     16806     16805     16808     16810
     16806     16805     16808     16811     16807     16805     16808     16809
     16807     16805     16808     16810     16807     16805     16808     16811
     16809     16808     16811     16812     16809     16808     16811     16813
     16809     16808     16811     16814     16810     16808     16811     16812
     16810     16808     16811     16813     16810     16808     16811     16814
     16815     16816     16831     16832     16815     16816     16831     16833
     16815     16816     16831     16837     16816     16815     16819     16820
     16816     16815     16819     16821     16816     16815     16819     16822
     16816     16815     16823     16824     16816     16815     16823     16825
     16816     16815     16823     16826     16816     16815     16827     16828
     16816     16815     16827     16829     16816     16815     16827     16830
     16816     16831     16837     16834     16817     16816     16815     16819
     16817     16816     16815     16823     16817     16816     16815     16827
     16817     16816     16831     16832     16817     16816     16831     16833
     16817     16816     16831     16837     16818     16816     16815     16819
     16818     16816     16815     16823     16818     16816     16815     16827
     16818     16816     16831     16832     16818     16816     16831     16833
     16818     16816     16831     16837     16819     16815     16816     16831
     16819     16815     16823     16824     16819     16815     16823     16825
     16819     16815     16823     16826     16819     16815     16827     16828
     16819     16815     16827     16829     16819     16815     16827     16830
     16820     16819     16815     16823     16820     16819     16815     16827
     16821     16819     16815     16823     16821     16819     16815     16827
     16822     16819     16815     16823     16822     16819     16815     16827
     16823     16815     16816     16831     16823     16815     16827     16828
     16823     16815     16827     16829     16823     16815     16827     16830
     16824     16823     16815     16827     16825     16823     16815     16827
     16826     16823     16815     16827     16827     16815     16816     16831
     16831     16837     16834     16835     16831     16837     16834     16836
     16831     16837     16834     16838     16832     16831     16837     16834
     16833     16831     16837     16834     16834     16838     16839     16840
     16834     16838     16839     16841     16834     16838     16839     16842
     16835     16834     16838     16839     16836     16834     16838     16839
     16837     16834     16838     16839     16838     16839     16842     16843
     16838     16839     16842     16844     16838     16839     16842     16850
     16839     16842     16844     16845     16839     16842     16850     16851
     16839     16842     16850     16852     16839     16842     16850     16853
     16840     16839     16842     16843     16840     16839     16842     16844
     16840     16839     16842     16850     16841     16839     16842     16843
     16841     16839     16842     16844     16841     16839     16842     16850
     16842     16844     16845     16846     16842     16844     16845     16847
     16842     16850     16853     16854     16843     16842     16844     16845
     16843     16842     16850     16851     16843     16842     16850     16852
     16843     16842     16850     16853     16844     16842     16850     16851
     16844     16842     16850     16852     16844     16842     16850     16853
     16844     16845     16847     16848     16844     16845     16847     16849
     16844     16845     16847     16859     16845     16844     16842     16850
     16845     16847     16859     16860     16845     16847     16859     16861
     16845     16847     16859     16862     16846     16845     16847     16848
     16846     16845     16847     16849     16846     16845     16847     16859
     16847     16859     16862     16863     16847     16859     16862     16864
     16847     16859     16862     16865     16848     16847     16859     16860
     16848     16847     16859     16861     16848     16847     16859     16862
     16849     16847     16859     16860     16849     16847     16859     16861
     16849     16847     16859     16862     16850     16853     16854     16855
     16850     16853     16854     16856     16851     16850     16853     16854
     16852     16850     16853     16854     16853     16854     16856     16857
     16853     16854     16856     16858     16853     16854     16856     16906
     16854     16856     16906     16907     16854     16856     16906     16908
     16854     16856     16906     16909     16855     16854     16856     16857
     16855     16854     16856     16858     16855     16854     16856     16906
     16856     16906     16909     16910     16856     16906     16909     16911
     16856     16906     16909     16912     16857     16856     16906     16907
     16857     16856     16906     16908     16857     16856     16906     16909
     16858     16856     16906     16907     16858     16856     16906     16908
     16858     16856     16906     16909     16859     16862     16865     16866
     16859     16862     16865     16867     16859     16862     16865     16868
     16860     16859     16862     16863     16860     16859     16862     16864
     16860     16859     16862     16865     16861     16859     16862     16863
     16861     16859     16862     16864     16861     16859     16862     16865
     16862     16865     16868     16869     16862     16865     16868     16870
     16862     16865     16868     16871     16863     16862     16865     16866
     16863     16862     16865     16867     16863     16862     16865     16868
     16864     16862     16865     16866     16864     16862     16865     16867
     16864     16862     16865     16868     16865     16868     16871     16872
     16865     16868     16871     16873     16865     16868     16871     16874
     16866     16865     16868     16869     16866     16865     16868     16870
     16866     16865     16868     16871     16867     16865     16868     16869
     16867     16865     16868     16870     16867     16865     16868     16871
     16868     16871     16874     16875     16868     16871     16874     16876
     16868     16871     16874     16877     16869     16868     16871     16872
     16869     16868     16871     16873     16869     16868     16871     16874
     16870     16868     16871     16872     16870     16868     16871     16873
     16870     16868     16871     16874     16871     16874     16877     16878
     16871     16874     16877     16879     16872     16871     16874     16875
     16872     16871     16874     16876     16872     16871     16874     16877
     16873     16871     16874     16875     16873     16871     16874     16876
     16873     16871     16874     16877     16874     16877     16879     16880
     16874     16877     16879     16881     16875     16874     16877     16878
     16875     16874     16877     16879     16876     16874     16877     16878
     16876     16874     16877     16879     16877     16879     16881     16882
     16877     16879     16881     16883     16877     16879     16881     16884
     16878     16877     16879     16880     16878     16877     16879     16881
     16879     16881     16884     16885     16879     16881     16884     16886
     16879     16881     16884     16887     16880     16879     16881     16882
     16880     16879     16881     16883     16880     16879     16881     16884
     16881     16884     16887     16888     16881     16884     16887     16889
     16881     16884     16887     16890     16882     16881     16884     16885
     16882     16881     16884     16886     16882     16881     16884     16887
     16883     16881     16884     16885     16883     16881     16884     16886
     16883     16881     16884     16887     16884     16887     16890     16891
     16884     16887     16890     16892     16884     16887     16890     16893
     16885     16884     16887     16888     16885     16884     16887     16889
     16885     16884     16887     16890     16886     16884     16887     16888
     16886     16884     16887     16889     16886     16884     16887     16890
     16887     16890     16893     16894     16887     16890     16893     16895
     16887     16890     16893     16896     16888     16887     16890     16891
     16888     16887     16890     16892     16888     16887     16890     16893
     16889     16887     16890     16891     16889     16887     16890     16892
     16889     16887     16890     16893     16890     16893     16896     16897
     16890     16893     16896     16898     16890     16893     16896     16899
     16891     16890     16893     16894     16891     16890     16893     16895
     16891     16890     16893     16896     16892     16890     16893     16894
     16892     16890     16893     16895     16892     16890     16893     16896
     16893     16896     16899     16900     16893     16896     16899     16901
     16893     16896     16899     16902     16894     16893     16896     16897
     16894     16893     16896     16898     16894     16893     16896     16899
     16895     16893     16896     16897     16895     16893     16896     16898
     16895     16893     16896     16899     16896     16899     16902     16903
     16896     16899     16902     16904     16896     16899     16902     16905
     16897     16896     16899     16900     16897     16896     16899     16901
     16897     16896     16899     16902     16898     16896     16899     16900
     16898     16896     16899     16901     16898     16896     16899     16902
     16900     16899     16902     16903     16900     16899     16902     16904
     16900     16899     16902     16905     16901     16899     16902     16903
     16901     16899     16902     16904     16901     16899     16902     16905
     16906     16909     16912     16913     16906     16909     16912     16914
     16906     16909     16912     16915     16907     16906     16909     16910
     16907     16906     16909     16911     16907     16906     16909     16912
     16908     16906     16909     16910     16908     16906     16909     16911
     16908     16906     16909     16912     16909     16912     16915     16916
     16909     16912     16915     16917     16909     16912     16915     16918
     16910     16909     16912     16913     16910     16909     16912     16914
     16910     16909     16912     16915     16911     16909     16912     16913
     16911     16909     16912     16914     16911     16909     16912     16915
     16912     16915     16918     16919     16912     16915     16918     16920
     16912     16915     16918     16921     16913     16912     16915     16916
     16913     16912     16915     16917     16913     16912     16915     16918
     16914     16912     16915     16916     16914     16912     16915     16917
     16914     16912     16915     16918     16915     16918     16921     16922
     16915     16918     16921     16923     16915     16918     16921     16924
     16916     16915     16918     16919     16916     16915     16918     16920
     16916     16915     16918     16921     16917     16915     16918     16919
     16917     16915     16918     16920     16917     16915     16918     16921
     16918     16921     16924     16925     16918     16921     16924     16926
     16918     16921     16924     16927     16919     16918     16921     16922
     16919     16918     16921     16923     16919     16918     16921     16924
     16920     16918     16921     16922     16920     16918     16921     16923
     16920     16918     16921     16924     16921     16924     16927     16928
     16921     16924     16927     16929     16921     16924     16927     16930
     16922     16921     16924     16925     16922     16921     16924     16926
     16922     16921     16924     16927     16923     16921     16924     16925
     16923     16921     16924     16926     16923     16921     16924     16927
     16924     16927     16930     16931     16924     16927     16930     16932
     16924     16927     16930     16933     16925     16924     16927     16928
     16925     16924     16927     16929     16925     16924     16927     16930
     16926     16924     16927     16928     16926     16924     16927     16929
     16926     16924     16927     16930     16927     16930     16933     16934
     16927     16930     16933     16935     16927     16930     16933     16936
     16928     16927     16930     16931     16928     16927     16930     16932
     16928     16927     16930     16933     16929     16927     16930     16931
     16929     16927     16930     16932     16929     16927     16930     16933
     16930     16933     16936     16937     16930     16933     16936     16938
     16930     16933     16936     16939     16931     16930     16933     16934
     16931     16930     16933     16935     16931     16930     16933     16936
     16932     16930     16933     16934     16932     16930     16933     16935
     16932     16930     16933     16936     16933     16936     16939     16940
     16933     16936     16939     16941     16933     16936     16939     16942
     16934     16933     16936     16937     16934     16933     16936     16938
     16934     16933     16936     16939     16935     16933     16936     16937
     16935     16933     16936     16938     16935     16933     16936     16939
     16936     16939     16942     16943     16936     16939     16942     16944
     16936     16939     16942     16945     16937     16936     16939     16940
     16937     16936     16939     16941     16937     16936     16939     16942
     16938     16936     16939     16940     16938     16936     16939     16941
     16938     16936     16939     16942     16939     16942     16945     16946
     16939     16942     16945     16947     16939     16942     16945     16948
     16940     16939     16942     16943     16940     16939     16942     16944
     16940     16939     16942     16945     16941     16939     16942     16943
     16941     16939     16942     16944     16941     16939     16942     16945
     16943     16942     16945     16946     16943     16942     16945     16947
     16943     16942     16945     16948     16944     16942     16945     16946
     16944     16942     16945     16947     16944     16942     16945     16948
     16949     16950     16965     16966     16949     16950     16965     16967
     16949     16950     16965     16971     16950     16949     16953     16954
     16950     16949     16953     16955     16950     16949     16953     16956
     16950     16949     16957     16958     16950     16949     16957     16959
     16950     16949     16957     16960     16950     16949     16961     16962
     16950     16949     16961     16963     16950     16949     16961     16964
     16950     16965     16971     16968     16951     16950     16949     16953
     16951     16950     16949     16957     16951     16950     16949     16961
     16951     16950     16965     16966     16951     16950     16965     16967
     16951     16950     16965     16971     16952     16950     16949     16953
     16952     16950     16949     16957     16952     16950     16949     16961
     16952     16950     16965     16966     16952     16950     16965     16967
     16952     16950     16965     16971     16953     16949     16950     16965
     16953     16949     16957     16958     16953     16949     16957     16959
     16953     16949     16957     16960     16953     16949     16961     16962
     16953     16949     16961     16963     16953     16949     16961     16964
     16954     16953     16949     16957     16954     16953     16949     16961
     16955     16953     16949     16957     16955     16953     16949     16961
     16956     16953     16949     16957     16956     16953     16949     16961
     16957     16949     16950     16965     16957     16949     16961     16962
     16957     16949     16961     16963     16957     16949     16961     16964
     16958     16957     16949     16961     16959     16957     16949     16961
     16960     16957     16949     16961     16961     16949     16950     16965
     16965     16971     16968     16969     16965     16971     16968     16970
     16965     16971     16968     16972     16966     16965     16971     16968
     16967     16965     16971     16968     16968     16972     16973     16974
     16968     16972     16973     16975     16968     16972     16973     16976
     16969     16968     16972     16973     16970     16968     16972     16973
     16971     16968     16972     16973     16972     16973     16976     16977
     16972     16973     16976     16978     16972     16973     16976     16984
     16973     16976     16978     16979     16973     16976     16984     16985
     16973     16976     16984     16986     16973     16976     16984     16987
     16974     16973     16976     16977     16974     16973     16976     16978
     16974     16973     16976     16984     16975     16973     16976     16977
     16975     16973     16976     16978     16975     16973     16976     16984
     16976     16978     16979     16980     16976     16978     16979     16981
     16976     16984     16987     16988     16977     16976     16978     16979
     16977     16976     16984     16985     16977     16976     16984     16986
     16977     16976     16984     16987     16978     16976     16984     16985
     16978     16976     16984     16986     16978     16976     16984     16987
     16978     16979     16981     16982     16978     16979     16981     16983
     16978     16979     16981     16993     16979     16978     16976     16984
     16979     16981     16993     16994     16979     16981     16993     16995
     16979     16981     16993     16996     16980     16979     16981     16982
     16980     16979     16981     16983     16980     16979     16981     16993
     16981     16993     16996     16997     16981     16993     16996     16998
     16981     16993     16996     16999     16982     16981     16993     16994
     16982     16981     16993     16995     16982     16981     16993     16996
     16983     16981     16993     16994     16983     16981     16993     16995
     16983     16981     16993     16996     16984     16987     16988     16989
     16984     16987     16988     16990     16985     16984     16987     16988
     16986     16984     16987     16988     16987     16988     16990     16991
     16987     16988     16990     16992     16987     16988     16990     17040
     16988     16990     17040     17041     16988     16990     17040     17042
     16988     16990     17040     17043     16989     16988     16990     16991
     16989     16988     16990     16992     16989     16988     16990     17040
     16990     17040     17043     17044     16990     17040     17043     17045
     16990     17040     17043     17046     16991     16990     17040     17041
     16991     16990     17040     17042     16991     16990     17040     17043
     16992     16990     17040     17041     16992     16990     17040     17042
     16992     16990     17040     17043     16993     16996     16999     17000
     16993     16996     16999     17001     16993     16996     16999     17002
     16994     16993     16996     16997     16994     16993     16996     16998
     16994     16993     16996     16999     16995     16993     16996     16997
     16995     16993     16996     16998     16995     16993     16996     16999
     16996     16999     17002     17003     16996     16999     17002     17004
     16996     16999     17002     17005     16997     16996     16999     17000
     16997     16996     16999     17001     16997     16996     16999     17002
     16998     16996     16999     17000     16998     16996     16999     17001
     16998     16996     16999     17002     16999     17002     17005     17006
     16999     17002     17005     17007     16999     17002     17005     17008
     17000     16999     17002     17003     17000     16999     17002     17004
     17000     16999     17002     17005     17001     16999     17002     17003
     17001     16999     17002     17004     17001     16999     17002     17005
     17002     17005     17008     17009     17002     17005     17008     17010
     17002     17005     17008     17011     17003     17002     17005     17006
     17003     17002     17005     17007     17003     17002     17005     17008
     17004     17002     17005     17006     17004     17002     17005     17007
     17004     17002     17005     17008     17005     17008     17011     17012
     17005     17008     17011     17013     17006     17005     17008     17009
     17006     17005     17008     17010     17006     17005     17008     17011
     17007     17005     17008     17009     17007     17005     17008     17010
     17007     17005     17008     17011     17008     17011     17013     17014
     17008     17011     17013     17015     17009     17008     17011     17012
     17009     17008     17011     17013     17010     17008     17011     17012
     17010     17008     17011     17013     17011     17013     17015     17016
     17011     17013     17015     17017     17011     17013     17015     17018
     17012     17011     17013     17014     17012     17011     17013     17015
     17013     17015     17018     17019     17013     17015     17018     17020
     17013     17015     17018     17021     17014     17013     17015     17016
     17014     17013     17015     17017     17014     17013     17015     17018
     17015     17018     17021     17022     17015     17018     17021     17023
     17015     17018     17021     17024     17016     17015     17018     17019
     17016     17015     17018     17020     17016     17015     17018     17021
     17017     17015     17018     17019     17017     17015     17018     17020
     17017     17015     17018     17021     17018     17021     17024     17025
     17018     17021     17024     17026     17018     17021     17024     17027
     17019     17018     17021     17022     17019     17018     17021     17023
     17019     17018     17021     17024     17020     17018     17021     17022
     17020     17018     17021     17023     17020     17018     17021     17024
     17021     17024     17027     17028     17021     17024     17027     17029
     17021     17024     17027     17030     17022     17021     17024     17025
     17022     17021     17024     17026     17022     17021     17024     17027
     17023     17021     17024     17025     17023     17021     17024     17026
     17023     17021     17024     17027     17024     17027     17030     17031
     17024     17027     17030     17032     17024     17027     17030     17033
     17025     17024     17027     17028     17025     17024     17027     17029
     17025     17024     17027     17030     17026     17024     17027     17028
     17026     17024     17027     17029     17026     17024     17027     17030
     17027     17030     17033     17034     17027     17030     17033     17035
     17027     17030     17033     17036     17028     17027     17030     17031
     17028     17027     17030     17032     17028     17027     17030     17033
     17029     17027     17030     17031     17029     17027     17030     17032
     17029     17027     17030     17033     17030     17033     17036     17037
     17030     17033     17036     17038     17030     17033     17036     17039
     17031     17030     17033     17034     17031     17030     17033     17035
     17031     17030     17033     17036     17032     17030     17033     17034
     17032     17030     17033     17035     17032     17030     17033     17036
     17034     17033     17036     17037     17034     17033     17036     17038
     17034     17033     17036     17039     17035     17033     17036     17037
     17035     17033     17036     17038     17035     17033     17036     17039
     17040     17043     17046     17047     17040     17043     17046     17048
     17040     17043     17046     17049     17041     17040     17043     17044
     17041     17040     17043     17045     17041     17040     17043     17046
     17042     17040     17043     17044     17042     17040     17043     17045
     17042     17040     17043     17046     17043     17046     17049     17050
     17043     17046     17049     17051     17043     17046     17049     17052
     17044     17043     17046     17047     17044     17043     17046     17048
     17044     17043     17046     17049     17045     17043     17046     17047
     17045     17043     17046     17048     17045     17043     17046     17049
     17046     17049     17052     17053     17046     17049     17052     17054
     17046     17049     17052     17055     17047     17046     17049     17050
     17047     17046     17049     17051     17047     17046     17049     17052
     17048     17046     17049     17050     17048     17046     17049     17051
     17048     17046     17049     17052     17049     17052     17055     17056
     17049     17052     17055     17057     17049     17052     17055     17058
     17050     17049     17052     17053     17050     17049     17052     17054
     17050     17049     17052     17055     17051     17049     17052     17053
     17051     17049     17052     17054     17051     17049     17052     17055
     17052     17055     17058     17059     17052     17055     17058     17060
     17052     17055     17058     17061     17053     17052     17055     17056
     17053     17052     17055     17057     17053     17052     17055     17058
     17054     17052     17055     17056     17054     17052     17055     17057
     17054     17052     17055     17058     17055     17058     17061     17062
     17055     17058     17061     17063     17055     17058     17061     17064
     17056     17055     17058     17059     17056     17055     17058     17060
     17056     17055     17058     17061     17057     17055     17058     17059
     17057     17055     17058     17060     17057     17055     17058     17061
     17058     17061     17064     17065     17058     17061     17064     17066
     17058     17061     17064     17067     17059     17058     17061     17062
     17059     17058     17061     17063     17059     17058     17061     17064
     17060     17058     17061     17062     17060     17058     17061     17063
     17060     17058     17061     17064     17061     17064     17067     17068
     17061     17064     17067     17069     17061     17064     17067     17070
     17062     17061     17064     17065     17062     17061     17064     17066
     17062     17061     17064     17067     17063     17061     17064     17065
     17063     17061     17064     17066     17063     17061     17064     17067
     17064     17067     17070     17071     17064     17067     17070     17072
     17064     17067     17070     17073     17065     17064     17067     17068
     17065     17064     17067     17069     17065     17064     17067     17070
     17066     17064     17067     17068     17066     17064     17067     17069
     17066     17064     17067     17070     17067     17070     17073     17074
     17067     17070     17073     17075     17067     17070     17073     17076
     17068     17067     17070     17071     17068     17067     17070     17072
     17068     17067     17070     17073     17069     17067     17070     17071
     17069     17067     17070     17072     17069     17067     17070     17073
     17070     17073     17076     17077     17070     17073     17076     17078
     17070     17073     17076     17079     17071     17070     17073     17074
     17071     17070     17073     17075     17071     17070     17073     17076
     17072     17070     17073     17074     17072     17070     17073     17075
     17072     17070     17073     17076     17073     17076     17079     17080
     17073     17076     17079     17081     17073     17076     17079     17082
     17074     17073     17076     17077     17074     17073     17076     17078
     17074     17073     17076     17079     17075     17073     17076     17077
     17075     17073     17076     17078     17075     17073     17076     17079
     17077     17076     17079     17080     17077     17076     17079     17081
     17077     17076     17079     17082     17078     17076     17079     17080
     17078     17076     17079     17081     17078     17076     17079     17082
     17083     17084     17099     17100     17083     17084     17099     17101
     17083     17084     17099     17105     17084     17083     17087     17088
     17084     17083     17087     17089     17084     17083     17087     17090
     17084     17083     17091     17092     17084     17083     17091     17093
     17084     17083     17091     17094     17084     17083     17095     17096
     17084     17083     17095     17097     17084     17083     17095     17098
     17084     17099     17105     17102     17085     17084     17083     17087
     17085     17084     17083     17091     17085     17084     17083     17095
     17085     17084     17099     17100     17085     17084     17099     17101
     17085     17084     17099     17105     17086     17084     17083     17087
     17086     17084     17083     17091     17086     17084     17083     17095
     17086     17084     17099     17100     17086     17084     17099     17101
     17086     17084     17099     17105     17087     17083     17084     17099
     17087     17083     17091     17092     17087     17083     17091     17093
     17087     17083     17091     17094     17087     17083     17095     17096
     17087     17083     17095     17097     17087     17083     17095     17098
     17088     17087     17083     17091     17088     17087     17083     17095
     17089     17087     17083     17091     17089     17087     17083     17095
     17090     17087     17083     17091     17090     17087     17083     17095
     17091     17083     17084     17099     17091     17083     17095     17096
     17091     17083     17095     17097     17091     17083     17095     17098
     17092     17091     17083     17095     17093     17091     17083     17095
     17094     17091     17083     17095     17095     17083     17084     17099
     17099     17105     17102     17103     17099     17105     17102     17104
     17099     17105     17102     17106     17100     17099     17105     17102
     17101     17099     17105     17102     17102     17106     17107     17108
     17102     17106     17107     17109     17102     17106     17107     17110
     17103     17102     17106     17107     17104     17102     17106     17107
     17105     17102     17106     17107     17106     17107     17110     17111
     17106     17107     17110     17112     17106     17107     17110     17118
     17107     17110     17112     17113     17107     17110     17118     17119
     17107     17110     17118     17120     17107     17110     17118     17121
     17108     17107     17110     17111     17108     17107     17110     17112
     17108     17107     17110     17118     17109     17107     17110     17111
     17109     17107     17110     17112     17109     17107     17110     17118
     17110     17112     17113     17114     17110     17112     17113     17115
     17110     17118     17121     17122     17111     17110     17112     17113
     17111     17110     17118     17119     17111     17110     17118     17120
     17111     17110     17118     17121     17112     17110     17118     17119
     17112     17110     17118     17120     17112     17110     17118     17121
     17112     17113     17115     17116     17112     17113     17115     17117
     17112     17113     17115     17127     17113     17112     17110     17118
     17113     17115     17127     17128     17113     17115     17127     17129
     17113     17115     17127     17130     17114     17113     17115     17116
     17114     17113     17115     17117     17114     17113     17115     17127
     17115     17127     17130     17131     17115     17127     17130     17132
     17115     17127     17130     17133     17116     17115     17127     17128
     17116     17115     17127     17129     17116     17115     17127     17130
     17117     17115     17127     17128     17117     17115     17127     17129
     17117     17115     17127     17130     17118     17121     17122     17123
     17118     17121     17122     17124     17119     17118     17121     17122
     17120     17118     17121     17122     17121     17122     17124     17125
     17121     17122     17124     17126     17121     17122     17124     17174
     17122     17124     17174     17175     17122     17124     17174     17176
     17122     17124     17174     17177     17123     17122     17124     17125
     17123     17122     17124     17126     17123     17122     17124     17174
     17124     17174     17177     17178     17124     17174     17177     17179
     17124     17174     17177     17180     17125     17124     17174     17175
     17125     17124     17174     17176     17125     17124     17174     17177
     17126     17124     17174     17175     17126     17124     17174     17176
     17126     17124     17174     17177     17127     17130     17133     17134
     17127     17130     17133     17135     17127     17130     17133     17136
     17128     17127     17130     17131     17128     17127     17130     17132
     17128     17127     17130     17133     17129     17127     17130     17131
     17129     17127     17130     17132     17129     17127     17130     17133
     17130     17133     17136     17137     17130     17133     17136     17138
     17130     17133     17136     17139     17131     17130     17133     17134
     17131     17130     17133     17135     17131     17130     17133     17136
     17132     17130     17133     17134     17132     17130     17133     17135
     17132     17130     17133     17136     17133     17136     17139     17140
     17133     17136     17139     17141     17133     17136     17139     17142
     17134     17133     17136     17137     17134     17133     17136     17138
     17134     17133     17136     17139     17135     17133     17136     17137
     17135     17133     17136     17138     17135     17133     17136     17139
     17136     17139     17142     17143     17136     17139     17142     17144
     17136     17139     17142     17145     17137     17136     17139     17140
     17137     17136     17139     17141     17137     17136     17139     17142
     17138     17136     17139     17140     17138     17136     17139     17141
     17138     17136     17139     17142     17139     17142     17145     17146
     17139     17142     17145     17147     17140     17139     17142     17143
     17140     17139     17142     17144     17140     17139     17142     17145
     17141     17139     17142     17143     17141     17139     17142     17144
     17141     17139     17142     17145     17142     17145     17147     17148
     17142     17145     17147     17149     17143     17142     17145     17146
     17143     17142     17145     17147     17144     17142     17145     17146
     17144     17142     17145     17147     17145     17147     17149     17150
     17145     17147     17149     17151     17145     17147     17149     17152
     17146     17145     17147     17148     17146     17145     17147     17149
     17147     17149     17152     17153     17147     17149     17152     17154
     17147     17149     17152     17155     17148     17147     17149     17150
     17148     17147     17149     17151     17148     17147     17149     17152
     17149     17152     17155     17156     17149     17152     17155     17157
     17149     17152     17155     17158     17150     17149     17152     17153
     17150     17149     17152     17154     17150     17149     17152     17155
     17151     17149     17152     17153     17151     17149     17152     17154
     17151     17149     17152     17155     17152     17155     17158     17159
     17152     17155     17158     17160     17152     17155     17158     17161
     17153     17152     17155     17156     17153     17152     17155     17157
     17153     17152     17155     17158     17154     17152     17155     17156
     17154     17152     17155     17157     17154     17152     17155     17158
     17155     17158     17161     17162     17155     17158     17161     17163
     17155     17158     17161     17164     17156     17155     17158     17159
     17156     17155     17158     17160     17156     17155     17158     17161
     17157     17155     17158     17159     17157     17155     17158     17160
     17157     17155     17158     17161     17158     17161     17164     17165
     17158     17161     17164     17166     17158     17161     17164     17167
     17159     17158     17161     17162     17159     17158     17161     17163
     17159     17158     17161     17164     17160     17158     17161     17162
     17160     17158     17161     17163     17160     17158     17161     17164
     17161     17164     17167     17168     17161     17164     17167     17169
     17161     17164     17167     17170     17162     17161     17164     17165
     17162     17161     17164     17166     17162     17161     17164     17167
     17163     17161     17164     17165     17163     17161     17164     17166
     17163     17161     17164     17167     17164     17167     17170     17171
     17164     17167     17170     17172     17164     17167     17170     17173
     17165     17164     17167     17168     17165     17164     17167     17169
     17165     17164     17167     17170     17166     17164     17167     17168
     17166     17164     17167     17169     17166     17164     17167     17170
     17168     17167     17170     17171     17168     17167     17170     17172
     17168     17167     17170     17173     17169     17167     17170     17171
     17169     17167     17170     17172     17169     17167     17170     17173
     17174     17177     17180     17181     17174     17177     17180     17182
     17174     17177     17180     17183     17175     17174     17177     17178
     17175     17174     17177     17179     17175     17174     17177     17180
     17176     17174     17177     17178     17176     17174     17177     17179
     17176     17174     17177     17180     17177     17180     17183     17184
     17177     17180     17183     17185     17177     17180     17183     17186
     17178     17177     17180     17181     17178     17177     17180     17182
     17178     17177     17180     17183     17179     17177     17180     17181
     17179     17177     17180     17182     17179     17177     17180     17183
     17180     17183     17186     17187     17180     17183     17186     17188
     17180     17183     17186     17189     17181     17180     17183     17184
     17181     17180     17183     17185     17181     17180     17183     17186
     17182     17180     17183     17184     17182     17180     17183     17185
     17182     17180     17183     17186     17183     17186     17189     17190
     17183     17186     17189     17191     17183     17186     17189     17192
     17184     17183     17186     17187     17184     17183     17186     17188
     17184     17183     17186     17189     17185     17183     17186     17187
     17185     17183     17186     17188     17185     17183     17186     17189
     17186     17189     17192     17193     17186     17189     17192     17194
     17186     17189     17192     17195     17187     17186     17189     17190
     17187     17186     17189     17191     17187     17186     17189     17192
     17188     17186     17189     17190     17188     17186     17189     17191
     17188     17186     17189     17192     17189     17192     17195     17196
     17189     17192     17195     17197     17189     17192     17195     17198
     17190     17189     17192     17193     17190     17189     17192     17194
     17190     17189     17192     17195     17191     17189     17192     17193
     17191     17189     17192     17194     17191     17189     17192     17195
     17192     17195     17198     17199     17192     17195     17198     17200
     17192     17195     17198     17201     17193     17192     17195     17196
     17193     17192     17195     17197     17193     17192     17195     17198
     17194     17192     17195     17196     17194     17192     17195     17197
     17194     17192     17195     17198     17195     17198     17201     17202
     17195     17198     17201     17203     17195     17198     17201     17204
     17196     17195     17198     17199     17196     17195     17198     17200
     17196     17195     17198     17201     17197     17195     17198     17199
     17197     17195     17198     17200     17197     17195     17198     17201
     17198     17201     17204     17205     17198     17201     17204     17206
     17198     17201     17204     17207     17199     17198     17201     17202
     17199     17198     17201     17203     17199     17198     17201     17204
     17200     17198     17201     17202     17200     17198     17201     17203
     17200     17198     17201     17204     17201     17204     17207     17208
     17201     17204     17207     17209     17201     17204     17207     17210
     17202     17201     17204     17205     17202     17201     17204     17206
     17202     17201     17204     17207     17203     17201     17204     17205
     17203     17201     17204     17206     17203     17201     17204     17207
     17204     17207     17210     17211     17204     17207     17210     17212
     17204     17207     17210     17213     17205     17204     17207     17208
     17205     17204     17207     17209     17205     17204     17207     17210
     17206     17204     17207     17208     17206     17204     17207     17209
     17206     17204     17207     17210     17207     17210     17213     17214
     17207     17210     17213     17215     17207     17210     17213     17216
     17208     17207     17210     17211     17208     17207     17210     17212
     17208     17207     17210     17213     17209     17207     17210     17211
     17209     17207     17210     17212     17209     17207     17210     17213
     17211     17210     17213     17214     17211     17210     17213     17215
     17211     17210     17213     17216     17212     17210     17213     17214
     17212     17210     17213     17215     17212     17210     17213     17216
     17217     17218     17233     17234     17217     17218     17233     17235
     17217     17218     17233     17239     17218     17217     17221     17222
     17218     17217     17221     17223     17218     17217     17221     17224
     17218     17217     17225     17226     17218     17217     17225     17227
     17218     17217     17225     17228     17218     17217     17229     17230
     17218     17217     17229     17231     17218     17217     17229     17232
     17218     17233     17239     17236     17219     17218     17217     17221
     17219     17218     17217     17225     17219     17218     17217     17229
     17219     17218     17233     17234     17219     17218     17233     17235
     17219     17218     17233     17239     17220     17218     17217     17221
     17220     17218     17217     17225     17220     17218     17217     17229
     17220     17218     17233     17234     17220     17218     17233     17235
     17220     17218     17233     17239     17221     17217     17218     17233
     17221     17217     17225     17226     17221     17217     17225     17227
     17221     17217     17225     17228     17221     17217     17229     17230
     17221     17217     17229     17231     17221     17217     17229     17232
     17222     17221     17217     17225     17222     17221     17217     17229
     17223     17221     17217     17225     17223     17221     17217     17229
     17224     17221     17217     17225     17224     17221     17217     17229
     17225     17217     17218     17233     17225     17217     17229     17230
     17225     17217     17229     17231     17225     17217     17229     17232
     17226     17225     17217     17229     17227     17225     17217     17229
     17228     17225     17217     17229     17229     17217     17218     17233
     17233     17239     17236     17237     17233     17239     17236     17238
     17233     17239     17236     17240     17234     17233     17239     17236
     17235     17233     17239     17236     17236     17240     17241     17242
     17236     17240     17241     17243     17236     17240     17241     17244
     17237     17236     17240     17241     17238     17236     17240     17241
     17239     17236     17240     17241     17240     17241     17244     17245
     17240     17241     17244     17246     17240     17241     17244     17252
     17241     17244     17246     17247     17241     17244     17252     17253
     17241     17244     17252     17254     17241     17244     17252     17255
     17242     17241     17244     17245     17242     17241     17244     17246
     17242     17241     17244     17252     17243     17241     17244     17245
     17243     17241     17244     17246     17243     17241     17244     17252
     17244     17246     17247     17248     17244     17246     17247     17249
     17244     17252     17255     17256     17245     17244     17246     17247
     17245     17244     17252     17253     17245     17244     17252     17254
     17245     17244     17252     17255     17246     17244     17252     17253
     17246     17244     17252     17254     17246     17244     17252     17255
     17246     17247     17249     17250     17246     17247     17249     17251
     17246     17247     17249     17261     17247     17246     17244     17252
     17247     17249     17261     17262     17247     17249     17261     17263
     17247     17249     17261     17264     17248     17247     17249     17250
     17248     17247     17249     17251     17248     17247     17249     17261
     17249     17261     17264     17265     17249     17261     17264     17266
     17249     17261     17264     17267     17250     17249     17261     17262
     17250     17249     17261     17263     17250     17249     17261     17264
     17251     17249     17261     17262     17251     17249     17261     17263
     17251     17249     17261     17264     17252     17255     17256     17257
     17252     17255     17256     17258     17253     17252     17255     17256
     17254     17252     17255     17256     17255     17256     17258     17259
     17255     17256     17258     17260     17255     17256     17258     17308
     17256     17258     17308     17309     17256     17258     17308     17310
     17256     17258     17308     17311     17257     17256     17258     17259
     17257     17256     17258     17260     17257     17256     17258     17308
     17258     17308     17311     17312     17258     17308     17311     17313
     17258     17308     17311     17314     17259     17258     17308     17309
     17259     17258     17308     17310     17259     17258     17308     17311
     17260     17258     17308     17309     17260     17258     17308     17310
     17260     17258     17308     17311     17261     17264     17267     17268
     17261     17264     17267     17269     17261     17264     17267     17270
     17262     17261     17264     17265     17262     17261     17264     17266
     17262     17261     17264     17267     17263     17261     17264     17265
     17263     17261     17264     17266     17263     17261     17264     17267
     17264     17267     17270     17271     17264     17267     17270     17272
     17264     17267     17270     17273     17265     17264     17267     17268
     17265     17264     17267     17269     17265     17264     17267     17270
     17266     17264     17267     17268     17266     17264     17267     17269
     17266     17264     17267     17270     17267     17270     17273     17274
     17267     17270     17273     17275     17267     17270     17273     17276
     17268     17267     17270     17271     17268     17267     17270     17272
     17268     17267     17270     17273     17269     17267     17270     17271
     17269     17267     17270     17272     17269     17267     17270     17273
     17270     17273     17276     17277     17270     17273     17276     17278
     17270     17273     17276     17279     17271     17270     17273     17274
     17271     17270     17273     17275     17271     17270     17273     17276
     17272     17270     17273     17274     17272     17270     17273     17275
     17272     17270     17273     17276     17273     17276     17279     17280
     17273     17276     17279     17281     17274     17273     17276     17277
     17274     17273     17276     17278     17274     17273     17276     17279
     17275     17273     17276     17277     17275     17273     17276     17278
     17275     17273     17276     17279     17276     17279     17281     17282
     17276     17279     17281     17283     17277     17276     17279     17280
     17277     17276     17279     17281     17278     17276     17279     17280
     17278     17276     17279     17281     17279     17281     17283     17284
     17279     17281     17283     17285     17279     17281     17283     17286
     17280     17279     17281     17282     17280     17279     17281     17283
     17281     17283     17286     17287     17281     17283     17286     17288
     17281     17283     17286     17289     17282     17281     17283     17284
     17282     17281     17283     17285     17282     17281     17283     17286
     17283     17286     17289     17290     17283     17286     17289     17291
     17283     17286     17289     17292     17284     17283     17286     17287
     17284     17283     17286     17288     17284     17283     17286     17289
     17285     17283     17286     17287     17285     17283     17286     17288
     17285     17283     17286     17289     17286     17289     17292     17293
     17286     17289     17292     17294     17286     17289     17292     17295
     17287     17286     17289     17290     17287     17286     17289     17291
     17287     17286     17289     17292     17288     17286     17289     17290
     17288     17286     17289     17291     17288     17286     17289     17292
     17289     17292     17295     17296     17289     17292     17295     17297
     17289     17292     17295     17298     17290     17289     17292     17293
     17290     17289     17292     17294     17290     17289     17292     17295
     17291     17289     17292     17293     17291     17289     17292     17294
     17291     17289     17292     17295     17292     17295     17298     17299
     17292     17295     17298     17300     17292     17295     17298     17301
     17293     17292     17295     17296     17293     17292     17295     17297
     17293     17292     17295     17298     17294     17292     17295     17296
     17294     17292     17295     17297     17294     17292     17295     17298
     17295     17298     17301     17302     17295     17298     17301     17303
     17295     17298     17301     17304     17296     17295     17298     17299
     17296     17295     17298     17300     17296     17295     17298     17301
     17297     17295     17298     17299     17297     17295     17298     17300
     17297     17295     17298     17301     17298     17301     17304     17305
     17298     17301     17304     17306     17298     17301     17304     17307
     17299     17298     17301     17302     17299     17298     17301     17303
     17299     17298     17301     17304     17300     17298     17301     17302
     17300     17298     17301     17303     17300     17298     17301     17304
     17302     17301     17304     17305     17302     17301     17304     17306
     17302     17301     17304     17307     17303     17301     17304     17305
     17303     17301     17304     17306     17303     17301     17304     17307
     17308     17311     17314     17315     17308     17311     17314     17316
     17308     17311     17314     17317     17309     17308     17311     17312
     17309     17308     17311     17313     17309     17308     17311     17314
     17310     17308     17311     17312     17310     17308     17311     17313
     17310     17308     17311     17314     17311     17314     17317     17318
     17311     17314     17317     17319     17311     17314     17317     17320
     17312     17311     17314     17315     17312     17311     17314     17316
     17312     17311     17314     17317     17313     17311     17314     17315
     17313     17311     17314     17316     17313     17311     17314     17317
     17314     17317     17320     17321     17314     17317     17320     17322
     17314     17317     17320     17323     17315     17314     17317     17318
     17315     17314     17317     17319     17315     17314     17317     17320
     17316     17314     17317     17318     17316     17314     17317     17319
     17316     17314     17317     17320     17317     17320     17323     17324
     17317     17320     17323     17325     17317     17320     17323     17326
     17318     17317     17320     17321     17318     17317     17320     17322
     17318     17317     17320     17323     17319     17317     17320     17321
     17319     17317     17320     17322     17319     17317     17320     17323
     17320     17323     17326     17327     17320     17323     17326     17328
     17320     17323     17326     17329     17321     17320     17323     17324
     17321     17320     17323     17325     17321     17320     17323     17326
     17322     17320     17323     17324     17322     17320     17323     17325
     17322     17320     17323     17326     17323     17326     17329     17330
     17323     17326     17329     17331     17323     17326     17329     17332
     17324     17323     17326     17327     17324     17323     17326     17328
     17324     17323     17326     17329     17325     17323     17326     17327
     17325     17323     17326     17328     17325     17323     17326     17329
     17326     17329     17332     17333     17326     17329     17332     17334
     17326     17329     17332     17335     17327     17326     17329     17330
     17327     17326     17329     17331     17327     17326     17329     17332
     17328     17326     17329     17330     17328     17326     17329     17331
     17328     17326     17329     17332     17329     17332     17335     17336
     17329     17332     17335     17337     17329     17332     17335     17338
     17330     17329     17332     17333     17330     17329     17332     17334
     17330     17329     17332     17335     17331     17329     17332     17333
     17331     17329     17332     17334     17331     17329     17332     17335
     17332     17335     17338     17339     17332     17335     17338     17340
     17332     17335     17338     17341     17333     17332     17335     17336
     17333     17332     17335     17337     17333     17332     17335     17338
     17334     17332     17335     17336     17334     17332     17335     17337
     17334     17332     17335     17338     17335     17338     17341     17342
     17335     17338     17341     17343     17335     17338     17341     17344
     17336     17335     17338     17339     17336     17335     17338     17340
     17336     17335     17338     17341     17337     17335     17338     17339
     17337     17335     17338     17340     17337     17335     17338     17341
     17338     17341     17344     17345     17338     17341     17344     17346
     17338     17341     17344     17347     17339     17338     17341     17342
     17339     17338     17341     17343     17339     17338     17341     17344
     17340     17338     17341     17342     17340     17338     17341     17343
     17340     17338     17341     17344     17341     17344     17347     17348
     17341     17344     17347     17349     17341     17344     17347     17350
     17342     17341     17344     17345     17342     17341     17344     17346
     17342     17341     17344     17347     17343     17341     17344     17345
     17343     17341     17344     17346     17343     17341     17344     17347
     17345     17344     17347     17348     17345     17344     17347     17349
     17345     17344     17347     17350     17346     17344     17347     17348
     17346     17344     17347     17349     17346     17344     17347     17350

       307 !NIMPHI: impropers
        10        12         7        11        10         7        12        11
        12        10        13        14        12        10        14        13
        15         5        17        16        27        29        24        28
        27        24        29        28        29        27        30        31
        29        27        31        30        32        22        34        33
        52        53        56        50        53        54        55        52
        56        57        58        52        59        39        61        60
        76        68        78        77        88        90        85        89
        88        85        90        89        90        88        91        92
        90        88        92        91        93        83        95        94
       110       102       112       111       143       142       145       144
       152       151       154       153       270       269       272       271
       279       278       281       280       253       251       255       254
       397       396       399       398       406       405       408       407
       380       378       382       381       531       530       533       532
       540       539       542       541       665       664       667       666
       674       673       676       675       799       798       801       800
       808       807       810       809       926       925       928       927
       935       934       937       936       909       907       911       910
      1060      1059      1062      1061      1069      1068      1071      1070
      1194      1193      1196      1195      1203      1202      1205      1204
      1328      1327      1330      1329      1337      1336      1339      1338
      1462      1461      1464      1463      1471      1470      1473      1472
      1596      1595      1598      1597      1605      1604      1607      1606
      1723      1722      1725      1724      1732      1731      1734      1733
      1706      1704      1708      1707      1857      1856      1859      1858
      1866      1865      1868      1867      1991      1990      1993      1992
      2000      1999      2002      2001      2125      2124      2127      2126
      2134      2133      2136      2135      2259      2258      2261      2260
      2268      2267      2270      2269      2393      2392      2395      2394
      2402      2401      2404      2403      2527      2526      2529      2528
      2536      2535      2538      2537      2661      2660      2663      2662
      2670      2669      2672      2671      2795      2794      2797      2796
      2804      2803      2806      2805      2929      2928      2931      2930
      2938      2937      2940      2939      3063      3062      3065      3064
      3072      3071      3074      3073      3197      3196      3199      3198
      3206      3205      3208      3207      3324      3323      3326      3325
      3333      3332      3335      3334      3307      3305      3309      3308
      3458      3457      3460      3459      3467      3466      3469      3468
      3592      3591      3594      3593      3601      3600      3603      3602
      3726      3725      3728      3727      3735      3734      3737      3736
      3860      3859      3862      3861      3869      3868      3871      3870
      3994      3993      3996      3995      4003      4002      4005      4004
      4121      4120      4123      4122      4130      4129      4132      4131
      4104      4102      4106      4105      4255      4254      4257      4256
      4264      4263      4266      4265      4389      4388      4391      4390
      4398      4397      4400      4399      4523      4522      4525      4524
      4532      4531      4534      4533      4657      4656      4659      4658
      4666      4665      4668      4667      4791      4790      4793      4792
      4800      4799      4802      4801      4918      4917      4920      4919
      4927      4926      4929      4928      4901      4899      4903      4902
      5052      5051      5054      5053      5061      5060      5063      5062
      5186      5185      5188      5187      5195      5194      5197      5196
      5320      5319      5322      5321      5329      5328      5331      5330
      5454      5453      5456      5455      5463      5462      5465      5464
      5588      5587      5590      5589      5597      5596      5599      5598
      5722      5721      5724      5723      5731      5730      5733      5732
      5856      5855      5858      5857      5865      5864      5867      5866
      5990      5989      5992      5991      5999      5998      6001      6000
      6124      6123      6126      6125      6133      6132      6135      6134
      6258      6257      6260      6259      6267      6266      6269      6268
      6392      6391      6394      6393      6401      6400      6403      6402
      6519      6518      6521      6520      6528      6527      6530      6529
      6502      6500      6504      6503      6646      6645      6648      6647
      6655      6654      6657      6656      6629      6627      6631      6630
      6773      6772      6775      6774      6782      6781      6784      6783
      6756      6754      6758      6757      6907      6906      6909      6908
      6916      6915      6918      6917      7041      7040      7043      7042
      7050      7049      7052      7051      7175      7174      7177      7176
      7184      7183      7186      7185      7302      7301      7304      7303
      7311      7310      7313      7312      7285      7283      7287      7286
      7436      7435      7438      7437      7445      7444      7447      7446
      7570      7569      7572      7571      7579      7578      7581      7580
      7697      7696      7699      7698      7706      7705      7708      7707
      7680      7678      7682      7681      7831      7830      7833      7832
      7840      7839      7842      7841      7965      7964      7967      7966
      7974      7973      7976      7975      8099      8098      8101      8100
      8108      8107      8110      8109      8233      8232      8235      8234
      8242      8241      8244      8243      8367      8366      8369      8368
      8376      8375      8378      8377      8494      8493      8496      8495
      8503      8502      8505      8504      8477      8475      8479      8478
      8628      8627      8630      8629      8637      8636      8639      8638
      8762      8761      8764      8763      8771      8770      8773      8772
      8896      8895      8898      8897      8905      8904      8907      8906
      9023      9022      9025      9024      9032      9031      9034      9033
      9006      9004      9008      9007      9150      9149      9152      9151
      9159      9158      9161      9160      9133      9131      9135      9134
      9284      9283      9286      9285      9293      9292      9295      9294
      9418      9417      9420      9419      9427      9426      9429      9428
      9552      9551      9554      9553      9561      9560      9563      9562
      9686      9685      9688      9687      9695      9694      9697      9696
      9820      9819      9822      9821      9829      9828      9831      9830
      9954      9953      9956      9955      9963      9962      9965      9964
     10081     10080     10083     10082     10090     10089     10092     10091
     10064     10062     10066     10065     10215     10214     10217     10216
     10224     10223     10226     10225     10342     10341     10344     10343
     10351     10350     10353     10352     10325     10323     10327     10326
     10469     10468     10471     10470     10478     10477     10480     10479
     10452     10450     10454     10453     10603     10602     10605     10604
     10612     10611     10614     10613     10737     10736     10739     10738
     10746     10745     10748     10747     10864     10863     10866     10865
     10873     10872     10875     10874     10847     10845     10849     10848
     10998     10997     11000     10999     11007     11006     11009     11008
     11132     11131     11134     11133     11141     11140     11143     11142
     11266     11265     11268     11267     11275     11274     11277     11276
     11393     11392     11395     11394     11402     11401     11404     11403
     11376     11374     11378     11377     11527     11526     11529     11528
     11536     11535     11538     11537     11661     11660     11663     11662
     11670     11669     11672     11671     11795     11794     11797     11796
     11804     11803     11806     11805     11929     11928     11931     11930
     11938     11937     11940     11939     12063     12062     12065     12064
     12072     12071     12074     12073     12197     12196     12199     12198
     12206     12205     12208     12207     12331     12330     12333     12332
     12340     12339     12342     12341     12465     12464     12467     12466
     12474     12473     12476     12475     12599     12598     12601     12600
     12608     12607     12610     12609     12733     12732     12735     12734
     12742     12741     12744     12743     12867     12866     12869     12868
     12876     12875     12878     12877     13001     13000     13003     13002
     13010     13009     13012     13011     13135     13134     13137     13136
     13144     13143     13146     13145     13269     13268     13271     13270
     13278     13277     13280     13279     13403     13402     13405     13404
     13412     13411     13414     13413     13537     13536     13539     13538
     13546     13545     13548     13547     13664     13663     13666     13665
     13673     13672     13675     13674     13647     13645     13649     13648
     13798     13797     13800     13799     13807     13806     13809     13808
     13925     13924     13927     13926     13934     13933     13936     13935
     13908     13906     13910     13909     14059     14058     14061     14060
     14068     14067     14070     14069     14193     14192     14195     14194
     14202     14201     14204     14203     14320     14319     14322     14321
     14329     14328     14331     14330     14303     14301     14305     14304
     14454     14453     14456     14455     14463     14462     14465     14464
     14588     14587     14590     14589     14597     14596     14599     14598
     14715     14714     14717     14716     14724     14723     14726     14725
     14698     14696     14700     14699     14849     14848     14851     14850
     14858     14857     14860     14859     14983     14982     14985     14984
     14992     14991     14994     14993     15110     15109     15112     15111
     15119     15118     15121     15120     15093     15091     15095     15094
     15244     15243     15246     15245     15253     15252     15255     15254
     15378     15377     15380     15379     15387     15386     15389     15388
     15512     15511     15514     15513     15521     15520     15523     15522
     15639     15638     15641     15640     15648     15647     15650     15649
     15622     15620     15624     15623     15773     15772     15775     15774
     15782     15781     15784     15783     15907     15906     15909     15908
     15916     15915     15918     15917     16041     16040     16043     16042
     16050     16049     16052     16051     16175     16174     16177     16176
     16184     16183     16186     16185     16309     16308     16311     16310
     16318     16317     16320     16319     16443     16442     16445     16444
     16452     16451     16454     16453     16577     16576     16579     16578
     16586     16585     16588     16587     16711     16710     16713     16712
     16720     16719     16722     16721     16845     16844     16847     16846
     16854     16853     16856     16855     16979     16978     16981     16980
     16988     16987     16990     16989     17113     17112     17115     17114
     17122     17121     17124     17123     17247     17246     17249     17248
     17256     17255     17258     17257

         0 !NDON: donors


         0 !NACC: acceptors


         0 !NNB

         0         0         0         0         0         0         0         0
         0         0         0         0         0         0         0         0
         0         0         0         0         0         0         0         0
         0         0         0         0         0         0         0         0
         0         0         0         0         0         0         0         0
         0         0         0         0         0         0         0         0
         0         0         0         0         0         0         0         0
         0         0         0         0         0         0         0         0
         0         0         0         0         0         0         0         0
         0         0         0         0         0         0         0         0
         0         0         0         0         0         0         0         0
         0         0         0         0         0         0         0         0
         0         0         0         0         0         0         0         0
         0         0         0         0         0         0         0         0
         0         0         0         0         0         0         0         0
         0         0         0         0         0         0         0         0
         0         0         0         0         0         0         0         0
         0         0         0         0         0         0         0         0
         0         0         0         0         0         0         0         0
         0         0         0         0         0         0         0         0
         0         0         0         0         0         0         0         0
         0         0         0         0         0         0         0         0
         0         0         0         0         0         0         0         0
         0         0         0         0         0         0         0         0
         0         0         0         0         0         0         0         0
         0         0         0         0         0         0         0         0
         0         0         0         0         0         0         0         0
         0         0         0         0         0         0         0         0
         0         0         0         0         0         0         0         0
         0         0         0         0         0         0         0         0
         0         0         0         0         0         0         0         0
         0         0         0         0         0         0         0         0
         0         0         0         0         0         0         0         0
         0         0         0         0         0         0         0         0
         0         0         0         0         0         0         0         0
         0         0         0         0         0         0         0         0
         0         0         0         0         0         0         0         0
         0         0         0         0         0         0         0         0
         0         0         0         0         0         0         0         0
         0         0         0         0         0         0         0         0
         0         0         0         0         0         0         0         0
         0         0         0         0         0         0         0         0
         0         0         0         0         0         0         0         0
         0         0         0         0         0         0         0         0
         0         0         0         0         0         0         0         0
         0         0         0         0         0         0         0         0
         0         0         0         0         0         0         0         0
         0         0         0         0         0         0         0         0
         0         0         0         0         0         0         0         0
         0         0         0         0         0         0         0         0
         0         0         0         0         0         0         0         0
         0         0         0         0         0         0         0         0
         0         0         0         0         0         0         0         0
         0         0         0         0         0         0         0         0
         0         0         0         0         0         0         0         0
         0         0         0         0         0         0         0         0
         0         0         0         0         0         0         0         0
         0         0         0         0         0         0         0         0
         0         0         0         0         0         0         0         0
         0         0         0         0         0         0         0         0
         0         0         0         0         0         0         0         0
         0         0         0         0         0         0         0         0
         0         0         0         0         0         0         0         0
         0         0         0         0         0         0         0         0
         0         0         0         0         0         0         0         0
         0         0         0         0         0         0         0         0
         0         0         0         0         0         0         0         0
         0         0         0         0         0         0         0         0
         0         0         0         0         0         0         0         0
         0         0         0         0         0         0         0         0
         0         0         0         0         0         0         0         0
         0         0         0         0         0         0         0         0
         0         0         0         0         0         0         0         0
         0         0         0         0         0         0         0         0
         0         0         0         0         0         0         0         0
         0         0         0         0         0         0         0         0
         0         0         0         0         0         0         0         0
         0         0         0         0         0         0         0         0
         0         0         0         0         0         0         0         0
         0         0         0         0         0         0         0         0
         0         0         0         0         0         0         0         0
         0         0         0         0         0         0         0         0
         0         0         0         0         0         0         0         0
         0         0         0         0         0         0         0         0
         0         0         0         0         0         0         0         0
         0         0         0         0         0         0         0         0
         0         0         0         0         0         0         0         0
         0         0         0         0         0         0         0         0
         0         0         0         0         0         0         0         0
         0         0         0         0         0         0         0         0
         0         0         0         0         0         0         0         0
         0         0         0         0         0         0         0         0
         0         0         0         0         0         0         0         0
         0         0         0         0         0         0         0         0
         0         0         0         0         0         0         0         0
         0         0         0         0         0         0         0         0
         0         0         0         0         0         0         0         0
         0         0         0         0         0         0         0         0
         0         0         0         0         0         0         0         0
         0         0         0         0         0         0         0         0
         0         0         0         0         0         0         0         0
         0         0         0         0         0         0         0         0
         0         0         0         0         0         0         0         0
         0         0         0         0         0         0         0         0
         0         0         0         0         0         0         0         0
         0         0         0         0         0         0         0         0
         0         0         0         0         0         0         0         0
         0         0         0         0         0         0         0         0
         0         0         0         0         0         0         0         0
         0         0         0         0         0         0         0         0
         0         0         0         0         0         0         0         0
         0         0         0         0         0         0         0         0
         0         0         0         0         0         0         0         0
         0         0         0         0         0         0         0         0
         0         0         0         0         0         0         0         0
         0         0         0         0         0         0         0         0
         0         0         0         0         0         0         0         0
         0         0         0         0         0         0         0         0
         0         0         0         0         0         0         0         0
         0         0         0         0         0         0         0         0
         0         0         0         0         0         0         0         0
         0         0         0         0         0         0         0         0
         0         0         0         0         0         0         0         0
         0         0         0         0         0         0         0         0
         0         0         0         0         0         0         0         0
         0         0         0         0         0         0         0         0
         0         0         0         0         0         0         0         0
         0         0         0         0         0         0         0         0
         0         0         0         0         0         0         0         0
         0         0         0         0         0         0         0         0
         0         0         0         0         0         0         0         0
         0         0         0         0         0         0         0         0
         0         0         0         0         0         0         0         0
         0         0         0         0         0         0         0         0
         0         0         0         0         0         0         0         0
         0         0         0         0         0         0         0         0
         0         0         0         0         0         0         0         0
         0         0         0         0         0         0         0         0
         0         0         0         0         0         0         0         0
         0         0         0         0         0         0         0         0
         0         0         0         0         0         0         0         0
         0         0         0         0         0         0         0         0
         0         0         0         0         0         0         0         0
         0         0         0         0         0         0         0         0
         0         0         0         0         0         0         0         0
         0         0         0         0         0         0         0         0
         0         0         0         0         0         0         0         0
         0         0         0         0         0         0         0         0
         0         0         0         0         0         0         0         0
         0         0         0         0         0         0         0         0
         0         0         0         0         0         0         0         0
         0         0         0         0         0         0         0         0
         0         0         0         0         0         0         0         0
         0         0         0         0         0         0         0         0
         0         0         0         0         0         0         0         0
         0         0         0         0         0         0         0         0
         0         0         0         0         0         0         0         0
         0         0         0         0         0         0         0         0
         0         0         0         0         0         0         0         0
         0         0         0         0         0         0         0         0
         0         0         0         0         0         0         0         0
         0         0         0         0         0         0         0         0
         0         0         0         0         0         0         0         0
         0         0         0         0         0         0         0         0
         0         0         0         0         0         0         0         0
         0         0         0         0         0         0         0         0
         0         0         0         0         0         0         0         0
         0         0         0         0         0         0         0         0
         0         0         0         0         0         0         0         0
         0         0         0         0         0         0         0         0
         0         0         0         0         0         0         0         0
         0         0         0         0         0         0         0         0
         0         0         0         0         0         0         0         0
         0         0         0         0         0         0         0         0
         0         0         0         0         0         0         0         0
         0         0         0         0         0         0         0         0
         0         0         0         0         0         0         0         0
         0         0         0         0         0         0         0         0
         0         0         0         0         0         0         0         0
         0         0         0         0         0         0         0         0
         0         0         0         0         0         0         0         0
         0         0         0         0         0         0         0         0
         0         0         0         0         0         0         0         0
         0         0         0         0         0         0         0         0
         0         0         0         0         0         0         0         0
         0         0         0         0         0         0         0         0
         0         0         0         0         0         0         0         0
         0         0         0         0         0         0         0         0
         0         0         0         0         0         0         0         0
         0         0         0         0         0         0         0         0
         0         0         0         0         0         0         0         0
         0         0         0         0         0         0         0         0
         0         0         0         0         0         0         0         0
         0         0         0         0         0         0         0         0
         0         0         0         0         0         0         0         0
         0         0         0         0         0         0         0         0
         0         0         0         0         0         0         0         0
         0         0         0         0         0         0         0         0
         0         0         0         0         0         0         0         0
         0         0         0         0         0         0         0         0
         0         0         0         0         0         0         0         0
         0         0         0         0         0         0         0         0
         0         0         0         0         0         0         0         0
         0         0         0         0         0         0         0         0
         0         0         0         0         0         0         0         0
         0         0         0         0         0         0         0         0
         0         0         0         0         0         0         0         0
         0         0         0         0         0         0         0         0
         0         0         0         0         0         0         0         0
         0         0         0         0         0         0         0         0
         0         0         0         0         0         0         0         0
         0         0         0         0         0         0         0         0
         0         0         0         0         0         0         0         0
         0         0         0         0         0         0         0         0
         0         0         0         0         0         0         0         0
         0         0         0         0         0         0         0         0
         0         0         0         0         0         0         0         0
         0         0         0         0         0         0         0         0
         0         0         0         0         0         0         0         0
         0         0         0         0         0         0         0         0
         0         0         0         0         0         0         0         0
         0         0         0         0         0         0         0         0
         0         0         0         0         0         0         0         0
         0         0         0         0         0         0         0         0
         0         0         0         0         0         0         0         0
         0         0         0         0         0         0         0         0
         0         0         0         0         0         0         0         0
         0         0         0         0         0         0         0         0
         0         0         0         0         0         0         0         0
         0         0         0         0         0         0         0         0
         0         0         0         0         0         0         0         0
         0         0         0         0         0         0         0         0
         0         0         0         0         0         0         0         0
         0         0         0         0         0         0         0         0
         0         0         0         0         0         0         0         0
         0         0         0         0         0         0         0         0
         0         0         0         0         0         0         0         0
         0         0         0         0         0         0         0         0
         0         0         0         0         0         0         0         0
         0         0         0         0         0         0         0         0
         0         0         0         0         0         0         0         0
         0         0         0         0         0         0         0         0
         0         0         0         0         0         0         0         0
         0         0         0         0         0         0         0         0
         0         0         0         0         0         0         0         0
         0         0         0         0         0         0         0         0
         0         0         0         0         0         0         0         0
         0         0         0         0         0         0         0         0
         0         0         0         0         0         0         0         0
         0         0         0         0         0         0         0         0
         0         0         0         0         0         0         0         0
         0         0         0         0         0         0         0         0
         0         0         0         0         0         0         0         0
         0         0         0         0         0         0         0         0
         0         0         0         0         0         0         0         0
         0         0         0         0         0         0         0         0
         0         0         0         0         0         0         0         0
         0         0         0         0         0         0         0         0
         0         0         0         0         0         0         0         0
         0         0         0         0         0         0         0         0
         0         0         0         0         0         0         0         0
         0         0         0         0         0         0         0         0
         0         0         0         0         0         0         0         0
         0         0         0         0         0         0         0         0
         0         0         0         0         0         0         0         0
         0         0         0         0         0         0         0         0
         0         0         0         0         0         0         0         0
         0         0         0         0         0         0         0         0
         0         0         0         0         0         0         0         0
         0         0         0         0         0         0         0         0
         0         0         0         0         0         0         0         0
         0         0         0         0         0         0         0         0
         0         0         0         0         0         0         0         0
         0         0         0         0         0         0         0         0
         0         0         0         0         0         0         0         0
         0         0         0         0         0         0         0         0
         0         0         0         0         0         0         0         0
         0         0         0         0         0         0         0         0
         0         0         0         0         0         0         0         0
         0         0         0         0         0         0         0         0
         0         0         0         0         0         0         0         0
         0         0         0         0         0         0         0         0
         0         0         0         0         0         0         0         0
         0         0         0         0         0         0         0         0
         0         0         0         0         0         0         0         0
         0         0         0         0         0         0         0         0
         0         0         0         0         0         0         0         0
         0         0         0         0         0         0         0         0
         0         0         0         0         0         0         0         0
         0         0         0         0         0         0         0         0
         0         0         0         0         0         0         0         0
         0         0         0         0         0         0         0         0
         0         0         0         0         0         0         0         0
         0         0         0         0         0         0         0         0
         0         0         0         0         0         0         0         0
         0         0         0         0         0         0         0         0
         0         0         0         0         0         0         0         0
         0         0         0         0         0         0         0         0
         0         0         0         0         0         0         0         0
         0         0         0         0         0         0         0         0
         0         0         0         0         0         0         0         0
         0         0         0         0         0         0         0         0
         0         0         0         0         0         0         0         0
         0         0         0         0         0         0         0         0
         0         0         0         0         0         0         0         0
         0         0         0         0         0         0         0         0
         0         0         0         0         0         0         0         0
         0         0         0         0         0         0         0         0
         0         0         0         0         0         0         0         0
         0         0         0         0         0         0         0         0
         0         0         0         0         0         0         0         0
         0         0         0         0         0         0         0         0
         0         0         0         0         0         0         0         0
         0         0         0         0         0         0         0         0
         0         0         0         0         0         0         0         0
         0         0         0         0         0         0         0         0
         0         0         0         0         0         0         0         0
         0         0         0         0         0         0         0         0
         0         0         0         0         0         0         0         0
         0         0         0         0         0         0         0         0
         0         0         0         0         0         0         0         0
         0         0         0         0         0         0         0         0
         0         0         0         0         0         0         0         0
         0         0         0         0         0         0         0         0
         0         0         0         0         0         0         0         0
         0         0         0         0         0         0         0         0
         0         0         0         0         0         0         0         0
         0         0         0         0         0         0         0         0
         0         0         0         0         0         0         0         0
         0         0         0         0         0         0         0         0
         0         0         0         0         0         0         0         0
         0         0         0         0         0         0         0         0
         0         0         0         0         0         0         0         0
         0         0         0         0         0         0         0         0
         0         0         0         0         0         0         0         0
         0         0         0         0         0         0         0         0
         0         0         0         0         0         0         0         0
         0         0         0         0         0         0         0         0
         0         0         0         0         0         0         0         0
         0         0         0         0         0         0         0         0
         0         0         0         0         0         0         0         0
         0         0         0         0         0         0         0         0
         0         0         0         0         0         0         0         0
         0         0         0         0         0         0         0         0
         0         0         0         0         0         0         0         0
         0         0         0         0         0         0         0         0
         0         0         0         0         0         0         0         0
         0         0         0         0         0         0         0         0
         0         0         0         0         0         0         0         0
         0         0         0         0         0         0         0         0
         0         0         0         0         0         0         0         0
         0         0         0         0         0         0         0         0
         0         0         0         0         0         0         0         0
         0         0         0         0         0         0         0         0
         0         0         0         0         0         0         0         0
         0         0         0         0         0         0         0         0
         0         0         0         0         0         0         0         0
         0         0         0         0         0         0         0         0
         0         0         0         0         0         0         0         0
         0         0         0         0         0         0         0         0
         0         0         0         0         0         0         0         0
         0         0         0         0         0         0         0         0
         0         0         0         0         0         0         0         0
         0         0         0         0         0         0         0         0
         0         0         0         0         0         0         0         0
         0         0         0         0         0         0         0         0
         0         0         0         0         0         0         0         0
         0         0         0         0         0         0         0         0
         0         0         0         0         0         0         0         0
         0         0         0         0         0         0         0         0
         0         0         0         0         0         0         0         0
         0         0         0         0         0         0         0         0
         0         0         0         0         0         0         0         0
         0         0         0         0         0         0         0         0
         0         0         0         0         0         0         0         0
         0         0         0         0         0         0         0         0
         0         0         0         0         0         0         0         0
         0         0         0         0         0         0         0         0
         0         0         0         0         0         0         0         0
         0         0         0         0         0         0         0         0
         0         0         0         0         0         0         0         0
         0         0         0         0         0         0         0         0
         0         0         0         0         0         0         0         0
         0         0         0         0         0         0         0         0
         0         0         0         0         0         0         0         0
         0         0         0         0         0         0         0         0
         0         0         0         0         0         0         0         0
         0         0         0         0         0         0         0         0
         0         0         0         0         0         0         0         0
         0         0         0         0         0         0         0         0
         0         0         0         0         0         0         0         0
         0         0         0         0         0         0         0         0
         0         0         0         0         0         0         0         0
         0         0         0         0         0         0         0         0
         0         0         0         0         0         0         0         0
         0         0         0         0         0         0         0         0
         0         0         0         0         0         0         0         0
         0         0         0         0         0         0         0         0
         0         0         0         0         0         0         0         0
         0         0         0         0         0         0         0         0
         0         0         0         0         0         0         0         0
         0         0         0         0         0         0         0         0
         0         0         0         0         0         0         0         0
         0         0         0         0         0         0         0         0
         0         0         0         0         0         0         0         0
         0         0         0         0         0         0         0         0
         0         0         0         0         0         0         0         0
         0         0         0         0         0         0         0         0
         0         0         0         0         0         0         0         0
         0         0         0         0         0         0         0         0
         0         0         0         0         0         0         0         0
         0         0         0         0         0         0         0         0
         0         0         0         0         0         0         0         0
         0         0         0         0         0         0         0         0
         0         0         0         0         0         0         0         0
         0         0         0         0         0         0         0         0
         0         0         0         0         0         0         0         0
         0         0         0         0         0         0         0         0
         0         0         0         0         0         0         0         0
         0         0         0         0         0         0         0         0
         0         0         0         0         0         0         0         0
         0         0         0         0         0         0         0         0
         0         0         0         0         0         0         0         0
         0         0         0         0         0         0         0         0
         0         0         0         0         0         0         0         0
         0         0         0         0         0         0         0         0
         0         0         0         0         0         0         0         0
         0         0         0         0         0         0         0         0
         0         0         0         0         0         0         0         0
         0         0         0         0         0         0         0         0
         0         0         0         0         0         0         0         0
         0         0         0         0         0         0         0         0
         0         0         0         0         0         0         0         0
         0         0         0         0         0         0         0         0
         0         0         0         0         0         0         0         0
         0         0         0         0         0         0         0         0
         0         0         0         0         0         0         0         0
         0         0         0         0         0         0         0         0
         0         0         0         0         0         0         0         0
         0         0         0         0         0         0         0         0
         0         0         0         0         0         0         0         0
         0         0         0         0         0         0         0         0
         0         0         0         0         0         0         0         0
         0         0         0         0         0         0         0         0
         0         0         0         0         0         0         0         0
         0         0         0         0         0         0         0         0
         0         0         0         0         0         0         0         0
         0         0         0         0         0         0         0         0
         0         0         0         0         0         0         0         0
         0         0         0         0         0         0         0         0
         0         0         0         0         0         0         0         0
         0         0         0         0         0         0         0         0
         0         0         0         0         0         0         0         0
         0         0         0         0         0         0         0         0
         0         0         0         0         0         0         0         0
         0         0         0         0         0         0         0         0
         0         0         0         0         0         0         0         0
         0         0         0         0         0         0         0         0
         0         0         0         0         0         0         0         0
         0         0         0         0         0         0         0         0
         0         0         0         0         0         0         0         0
         0         0         0         0         0         0         0         0
         0         0         0         0         0         0         0         0
         0         0         0         0         0         0         0         0
         0         0         0         0         0         0         0         0
         0         0         0         0         0         0         0         0
         0         0         0         0         0         0         0         0
         0         0         0         0         0         0         0         0
         0         0         0         0         0         0         0         0
         0         0         0         0         0         0         0         0
         0         0         0         0         0         0         0         0
         0         0         0         0         0         0         0         0
         0         0         0         0         0         0         0         0
         0         0         0         0         0         0         0         0
         0         0         0         0         0         0         0         0
         0         0         0         0         0         0         0         0
         0         0         0         0         0         0         0         0
         0         0         0         0         0         0         0         0
         0         0         0         0         0         0         0         0
         0         0         0         0         0         0         0         0
         0         0         0         0         0         0         0         0
         0         0         0         0         0         0         0         0
         0         0         0         0         0         0         0         0
         0         0         0         0         0         0         0         0
         0         0         0         0         0         0         0         0
         0         0         0         0         0         0         0         0
         0         0         0         0         0         0         0         0
         0         0         0         0         0         0         0         0
         0         0         0         0         0         0         0         0
         0         0         0         0         0         0         0         0
         0         0         0         0         0         0         0         0
         0         0         0         0         0         0         0         0
         0         0         0         0         0         0         0         0
         0         0         0         0         0         0         0         0
         0         0         0         0         0         0         0         0
         0         0         0         0         0         0         0         0
         0         0         0         0         0         0         0         0
         0         0         0         0         0         0         0         0
         0         0         0         0         0         0         0         0
         0         0         0         0         0         0         0         0
         0         0         0         0         0         0         0         0
         0         0         0         0         0         0         0         0
         0         0         0         0         0         0         0         0
         0         0         0         0         0         0         0         0
         0         0         0         0         0         0         0         0
         0         0         0         0         0         0         0         0
         0         0         0         0         0         0         0         0
         0         0         0         0         0         0         0         0
         0         0         0         0         0         0         0         0
         0         0         0         0         0         0         0         0
         0         0         0         0         0         0         0         0
         0         0         0         0         0         0         0         0
         0         0         0         0         0         0         0         0
         0         0         0         0         0         0         0         0
         0         0         0         0         0         0         0         0
         0         0         0         0         0         0         0         0
         0         0         0         0         0         0         0         0
         0         0         0         0         0         0         0         0
         0         0         0         0         0         0         0         0
         0         0         0         0         0         0         0         0
         0         0         0         0         0         0         0         0
         0         0         0         0         0         0         0         0
         0         0         0         0         0         0         0         0
         0         0         0         0         0         0         0         0
         0         0         0         0         0         0         0         0
         0         0         0         0         0         0         0         0
         0         0         0         0         0         0         0         0
         0         0         0         0         0         0         0         0
         0         0         0         0         0         0         0         0
         0         0         0         0         0         0         0         0
         0         0         0         0         0         0         0         0
         0         0         0         0         0         0         0         0
         0         0         0         0         0         0         0         0
         0         0         0         0         0         0         0         0
         0         0         0         0         0         0         0         0
         0         0         0         0         0         0         0         0
         0         0         0         0         0         0         0         0
         0         0         0         0         0         0         0         0
         0         0         0         0         0         0         0         0
         0         0         0         0         0         0         0         0
         0         0         0         0         0         0         0         0
         0         0         0         0         0         0         0         0
         0         0         0         0         0         0         0         0
         0         0         0         0         0         0         0         0
         0         0         0         0         0         0         0         0
         0         0         0         0         0         0         0         0
         0         0         0         0         0         0         0         0
         0         0         0         0         0         0         0         0
         0         0         0         0         0         0         0         0
         0         0         0         0         0         0         0         0
         0         0         0         0         0         0         0         0
         0         0         0         0         0         0         0         0
         0         0         0         0         0         0         0         0
         0         0         0         0         0         0         0         0
         0         0         0         0         0         0         0         0
         0         0         0         0         0         0         0         0
         0         0         0         0         0         0         0         0
         0         0         0         0         0         0         0         0
         0         0         0         0         0         0         0         0
         0         0         0         0         0         0         0         0
         0         0         0         0         0         0         0         0
         0         0         0         0         0         0         0         0
         0         0         0         0         0         0         0         0
         0         0         0         0         0         0         0         0
         0         0         0         0         0         0         0         0
         0         0         0         0         0         0         0         0
         0         0         0         0         0         0         0         0
         0         0         0         0         0         0         0         0
         0         0         0         0         0         0         0         0
         0         0         0         0         0         0         0         0
         0         0         0         0         0         0         0         0
         0         0         0         0         0         0         0         0
         0         0         0         0         0         0         0         0
         0         0         0         0         0         0         0         0
         0         0         0         0         0         0         0         0
         0         0         0         0         0         0         0         0
         0         0         0         0         0         0         0         0
         0         0         0         0         0         0         0         0
         0         0         0         0         0         0         0         0
         0         0         0         0         0         0         0         0
         0         0         0         0         0         0         0         0
         0         0         0         0         0         0         0         0
         0         0         0         0         0         0         0         0
         0         0         0         0         0         0         0         0
         0         0         0         0         0         0         0         0
         0         0         0         0         0         0         0         0
         0         0         0         0         0         0         0         0
         0         0         0         0         0         0         0         0
         0         0         0         0         0         0         0         0
         0         0         0         0         0         0         0         0
         0         0         0         0         0         0         0         0
         0         0         0         0         0         0         0         0
         0         0         0         0         0         0         0         0
         0         0         0         0         0         0         0         0
         0         0         0         0         0         0         0         0
         0         0         0         0         0         0         0         0
         0         0         0         0         0         0         0         0
         0         0         0         0         0         0         0         0
         0         0         0         0         0         0         0         0
         0         0         0         0         0         0         0         0
         0         0         0         0         0         0         0         0
         0         0         0         0         0         0         0         0
         0         0         0         0         0         0         0         0
         0         0         0         0         0         0         0         0
         0         0         0         0         0         0         0         0
         0         0         0         0         0         0         0         0
         0         0         0         0         0         0         0         0
         0         0         0         0         0         0         0         0
         0         0         0         0         0         0         0         0
         0         0         0         0         0         0         0         0
         0         0         0         0         0         0         0         0
         0         0         0         0         0         0         0         0
         0         0         0         0         0         0         0         0
         0         0         0         0         0         0         0         0
         0         0         0         0         0         0         0         0
         0         0         0         0         0         0         0         0
         0         0         0         0         0         0         0         0
         0         0         0         0         0         0         0         0
         0         0         0         0         0         0         0         0
         0         0         0         0         0         0         0         0
         0         0         0         0         0         0         0         0
         0         0         0         0         0         0         0         0
         0         0         0         0         0         0         0         0
         0         0         0         0         0         0         0         0
         0         0         0         0         0         0         0         0
         0         0         0         0         0         0         0         0
         0         0         0         0         0         0         0         0
         0         0         0         0         0         0         0         0
         0         0         0         0         0         0         0         0
         0         0         0         0         0         0         0         0
         0         0         0         0         0         0         0         0
         0         0         0         0         0         0         0         0
         0         0         0         0         0         0         0         0
         0         0         0         0         0         0         0         0
         0         0         0         0         0         0         0         0
         0         0         0         0         0         0         0         0
         0         0         0         0         0         0         0         0
         0         0         0         0         0         0         0         0
         0         0         0         0         0         0         0         0
         0         0         0         0         0         0         0         0
         0         0         0         0         0         0         0         0
         0         0         0         0         0         0         0         0
         0         0         0         0         0         0         0         0
         0         0         0         0         0         0         0         0
         0         0         0         0         0         0         0         0
         0         0         0         0         0         0         0         0
         0         0         0         0         0         0         0         0
         0         0         0         0         0         0         0         0
         0         0         0         0         0         0         0         0
         0         0         0         0         0         0         0         0
         0         0         0         0         0         0         0         0
         0         0         0         0         0         0         0         0
         0         0         0         0         0         0         0         0
         0         0         0         0         0         0         0         0
         0         0         0         0         0         0         0         0
         0         0         0         0         0         0         0         0
         0         0         0         0         0         0         0         0
         0         0         0         0         0         0         0         0
         0         0         0         0         0         0         0         0
         0         0         0         0         0         0         0         0
         0         0         0         0         0         0         0         0
         0         0         0         0         0         0         0         0
         0         0         0         0         0         0         0         0
         0         0         0         0         0         0         0         0
         0         0         0         0         0         0         0         0
         0         0         0         0         0         0         0         0
         0         0         0         0         0         0         0         0
         0         0         0         0         0         0         0         0
         0         0         0         0         0         0         0         0
         0         0         0         0         0         0         0         0
         0         0         0         0         0         0         0         0
         0         0         0         0         0         0         0         0
         0         0         0         0         0         0         0         0
         0         0         0         0         0         0         0         0
         0         0         0         0         0         0         0         0
         0         0         0         0         0         0         0         0
         0         0         0         0         0         0         0         0
         0         0         0         0         0         0         0         0
         0         0         0         0         0         0         0         0
         0         0         0         0         0         0         0         0
         0         0         0         0         0         0         0         0
         0         0         0         0         0         0         0         0
         0         0         0         0         0         0         0         0
         0         0         0         0         0         0         0         0
         0         0         0         0         0         0         0         0
         0         0         0         0         0         0         0         0
         0         0         0         0         0         0         0         0
         0         0         0         0         0         0         0         0
         0         0         0         0         0         0         0         0
         0         0         0         0         0         0         0         0
         0         0         0         0         0         0         0         0
         0         0         0         0         0         0         0         0
         0         0         0         0         0         0         0         0
         0         0         0         0         0         0         0         0
         0         0         0         0         0         0         0         0
         0         0         0         0         0         0         0         0
         0         0         0         0         0         0         0         0
         0         0         0         0         0         0         0         0
         0         0         0         0         0         0         0         0
         0         0         0         0         0         0         0         0
         0         0         0         0         0         0         0         0
         0         0         0         0         0         0         0         0
         0         0         0         0         0         0         0         0
         0         0         0         0         0         0         0         0
         0         0         0         0         0         0         0         0
         0         0         0         0         0         0         0         0
         0         0         0         0         0         0         0         0
         0         0         0         0         0         0         0         0
         0         0         0         0         0         0         0         0
         0         0         0         0         0         0         0         0
         0         0         0         0         0         0         0         0
         0         0         0         0         0         0         0         0
         0         0         0         0         0         0         0         0
         0         0         0         0         0         0         0         0
         0         0         0         0         0         0         0         0
         0         0         0         0         0         0         0         0
         0         0         0         0         0         0         0         0
         0         0         0         0         0         0         0         0
         0         0         0         0         0         0         0         0
         0         0         0         0         0         0         0         0
         0         0         0         0         0         0         0         0
         0         0         0         0         0         0         0         0
         0         0         0         0         0         0         0         0
         0         0         0         0         0         0         0         0
         0         0         0         0         0         0         0         0
         0         0         0         0         0         0         0         0
         0         0         0         0         0         0         0         0
         0         0         0         0         0         0         0         0
         0         0         0         0         0         0         0         0
         0         0         0         0         0         0         0         0
         0         0         0         0         0         0         0         0
         0         0         0         0         0         0         0         0
         0         0         0         0         0         0         0         0
         0         0         0         0         0         0         0         0
         0         0         0         0         0         0         0         0
         0         0         0         0         0         0         0         0
         0         0         0         0         0         0         0         0
         0         0         0         0         0         0         0         0
         0         0         0         0         0         0         0         0
         0         0         0         0         0         0         0         0
         0         0         0         0         0         0         0         0
         0         0         0         0         0         0         0         0
         0         0         0         0         0         0         0         0
         0         0         0         0         0         0         0         0
         0         0         0         0         0         0         0         0
         0         0         0         0         0         0         0         0
         0         0         0         0         0         0         0         0
         0         0         0         0         0         0         0         0
         0         0         0         0         0         0         0         0
         0         0         0         0         0         0         0         0
         0         0         0         0         0         0         0         0
         0         0         0         0         0         0         0         0
         0         0         0         0         0         0         0         0
         0         0         0         0         0         0         0         0
         0         0         0         0         0         0         0         0
         0         0         0         0         0         0         0         0
         0         0         0         0         0         0         0         0
         0         0         0         0         0         0         0         0
         0         0         0         0         0         0         0         0
         0         0         0         0         0         0         0         0
         0         0         0         0         0         0         0         0
         0         0         0         0         0         0         0         0
         0         0         0         0         0         0         0         0
         0         0         0         0         0         0         0         0
         0         0         0         0         0         0         0         0
         0         0         0         0         0         0         0         0
         0         0         0         0         0         0         0         0
         0         0         0         0         0         0         0         0
         0         0         0         0         0         0         0         0
         0         0         0         0         0         0         0         0
         0         0         0         0         0         0         0         0
         0         0         0         0         0         0         0         0
         0         0         0         0         0         0         0         0
         0         0         0         0         0         0         0         0
         0         0         0         0         0         0         0         0
         0         0         0         0         0         0         0         0
         0         0         0         0         0         0         0         0
         0         0         0         0         0         0         0         0
         0         0         0         0         0         0         0         0
         0         0         0         0         0         0         0         0
         0         0         0         0         0         0         0         0
         0         0         0         0         0         0         0         0
         0         0         0         0         0         0         0         0
         0         0         0         0         0         0         0         0
         0         0         0         0         0         0         0         0
         0         0         0         0         0         0         0         0
         0         0         0         0         0         0         0         0
         0         0         0         0         0         0         0         0
         0         0         0         0         0         0         0         0
         0         0         0         0         0         0         0         0
         0         0         0         0         0         0         0         0
         0         0         0         0         0         0         0         0
         0         0         0         0         0         0         0         0
         0         0         0         0         0         0         0         0
         0         0         0         0         0         0         0         0
         0         0         0         0         0         0         0         0
         0         0         0         0         0         0         0         0
         0         0         0         0         0         0         0         0
         0         0         0         0         0         0         0         0
         0         0         0         0         0         0         0         0
         0         0         0         0         0         0         0         0
         0         0         0         0         0         0         0         0
         0         0         0         0         0         0         0         0
         0         0         0         0         0         0         0         0
         0         0         0         0         0         0         0         0
         0         0         0         0         0         0         0         0
         0         0         0         0         0         0         0         0
         0         0         0         0         0         0         0         0
         0         0         0         0         0         0         0         0
         0         0         0         0         0         0         0         0
         0         0         0         0         0         0         0         0
         0         0         0         0         0         0         0         0
         0         0         0         0         0         0         0         0
         0         0         0         0         0         0         0         0
         0         0         0         0         0         0         0         0
         0         0         0         0         0         0         0         0
         0         0         0         0         0         0         0         0
         0         0         0         0         0         0         0         0
         0         0         0         0         0         0         0         0
         0         0         0         0         0         0         0         0
         0         0         0         0         0         0         0         0
         0         0         0         0         0         0         0         0
         0         0         0         0         0         0         0         0
         0         0         0         0         0         0         0         0
         0         0         0         0         0         0         0         0
         0         0         0         0         0         0         0         0
         0         0         0         0         0         0         0         0
         0         0         0         0         0         0         0         0
         0         0         0         0         0         0         0         0
         0         0         0         0         0         0         0         0
         0         0         0         0         0         0         0         0
         0         0         0         0         0         0         0         0
         0         0         0         0         0         0         0         0
         0         0         0         0         0         0         0         0
         0         0         0         0         0         0         0         0
         0         0         0         0         0         0         0         0
         0         0         0         0         0         0         0         0
         0         0         0         0         0         0         0         0
         0         0         0         0         0         0         0         0
         0         0         0         0         0         0         0         0
         0         0         0         0         0         0         0         0
         0         0         0         0         0         0         0         0
         0         0         0         0         0         0         0         0
         0         0         0         0         0         0         0         0
         0         0         0         0         0         0         0         0
         0         0         0         0         0         0         0         0
         0         0         0         0         0         0         0         0
         0         0         0         0         0         0         0         0
         0         0         0         0         0         0         0         0
         0         0         0         0         0         0         0         0
         0         0         0         0         0         0         0         0
         0         0         0         0         0         0         0         0
         0         0         0         0         0         0         0         0
         0         0         0         0         0         0         0         0
         0         0         0         0         0         0         0         0
         0         0         0         0         0         0         0         0
         0         0         0         0         0         0         0         0
         0         0         0         0         0         0         0         0
         0         0         0         0         0         0         0         0
         0         0         0         0         0         0         0         0
         0         0         0         0         0         0         0         0
         0         0         0         0         0         0         0         0
         0         0         0         0         0         0         0         0
         0         0         0         0         0         0         0         0
         0         0         0         0         0         0         0         0
         0         0         0         0         0         0         0         0
         0         0         0         0         0         0         0         0
         0         0         0         0         0         0         0         0
         0         0         0         0         0         0         0         0
         0         0         0         0         0         0         0         0
         0         0         0         0         0         0         0         0
         0         0         0         0         0         0         0         0
         0         0         0         0         0         0         0         0
         0         0         0         0         0         0         0         0
         0         0         0         0         0         0         0         0
         0         0         0         0         0         0         0         0
         0         0         0         0         0         0         0         0
         0         0         0         0         0         0         0         0
         0         0         0         0         0         0         0         0
         0         0         0         0         0         0         0         0
         0         0         0         0         0         0         0         0
         0         0         0         0         0         0         0         0
         0         0         0         0         0         0         0         0
         0         0         0         0         0         0         0         0
         0         0         0         0         0         0         0         0
         0         0         0         0         0         0         0         0
         0         0         0         0         0         0         0         0
         0         0         0         0         0         0         0         0
         0         0         0         0         0         0         0         0
         0         0         0         0         0         0         0         0
         0         0         0         0         0         0         0         0
         0         0         0         0         0         0         0         0
         0         0         0         0         0         0         0         0
         0         0         0         0         0         0         0         0
         0         0         0         0         0         0         0         0
         0         0         0         0         0         0         0         0
         0         0         0         0         0         0         0         0
         0         0         0         0         0         0         0         0
         0         0         0         0         0         0         0         0
         0         0         0         0         0         0         0         0
         0         0         0         0         0         0         0         0
         0         0         0         0         0         0         0         0
         0         0         0         0         0         0         0         0
         0         0         0         0         0         0         0         0
         0         0         0         0         0         0         0         0
         0         0         0         0         0         0         0         0
         0         0         0         0         0         0         0         0
         0         0         0         0         0         0         0         0
         0         0         0         0         0         0         0         0
         0         0         0         0         0         0         0         0
         0         0         0         0         0         0         0         0
         0         0         0         0         0         0         0         0
         0         0         0         0         0         0         0         0
         0         0         0         0         0         0         0         0
         0         0         0         0         0         0         0         0
         0         0         0         0         0         0         0         0
         0         0         0         0         0         0         0         0
         0         0         0         0         0         0         0         0
         0         0         0         0         0         0         0         0
         0         0         0         0         0         0         0         0
         0         0         0         0         0         0         0         0
         0         0         0         0         0         0         0         0
         0         0         0         0         0         0         0         0
         0         0         0         0         0         0         0         0
         0         0         0         0         0         0         0         0
         0         0         0         0         0         0         0         0
         0         0         0         0         0         0         0         0
         0         0         0         0         0         0         0         0
         0         0         0         0         0         0         0         0
         0         0         0         0         0         0         0         0
         0         0         0         0         0         0         0         0
         0         0         0         0         0         0         0         0
         0         0         0         0         0         0         0         0
         0         0         0         0         0         0         0         0
         0         0         0         0         0         0         0         0
         0         0         0         0         0         0         0         0
         0         0         0         0         0         0         0         0
         0         0         0         0         0         0         0         0
         0         0         0         0         0         0         0         0
         0         0         0         0         0         0         0         0
         0         0         0         0         0         0         0         0
         0         0         0         0         0         0         0         0
         0         0         0         0         0         0         0         0
         0         0         0         0         0         0         0         0
         0         0         0         0         0         0         0         0
         0         0         0         0         0         0         0         0
         0         0         0         0         0         0         0         0
         0         0         0         0         0         0         0         0
         0         0         0         0         0         0         0         0
         0         0         0         0         0         0         0         0
         0         0         0         0         0         0         0         0
         0         0         0         0         0         0         0         0
         0         0         0         0         0         0         0         0
         0         0         0         0         0         0         0         0
         0         0         0         0         0         0         0         0
         0         0         0         0         0         0         0         0
         0         0         0         0         0         0         0         0
         0         0         0         0         0         0         0         0
         0         0         0         0         0         0         0         0
         0         0         0         0         0         0         0         0
         0         0         0         0         0         0         0         0
         0         0         0         0         0         0         0         0
         0         0         0         0         0         0         0         0
         0         0         0         0         0         0         0         0
         0         0         0         0         0         0         0         0
         0         0         0         0         0         0         0         0
         0         0         0         0         0         0         0         0
         0         0         0         0         0         0         0         0
         0         0         0         0         0         0         0         0
         0         0         0         0         0         0         0         0
         0         0         0         0         0         0         0         0
         0         0         0         0         0         0         0         0
         0         0         0         0         0         0         0         0
         0         0         0         0         0         0         0         0
         0         0         0         0         0         0         0         0
         0         0         0         0         0         0         0         0
         0         0         0         0         0         0         0         0
         0         0         0         0         0         0         0         0
         0         0         0         0         0         0         0         0
         0         0         0         0         0         0         0         0
         0         0         0         0         0         0         0         0
         0         0         0         0         0         0         0         0
         0         0         0         0         0         0         0         0
         0         0         0         0         0         0         0         0
         0         0         0         0         0         0         0         0
         0         0         0         0         0         0         0         0
         0         0         0         0         0         0         0         0
         0         0         0         0         0         0         0         0
         0         0         0         0         0         0         0         0
         0         0         0         0         0         0         0         0
         0         0         0         0         0         0         0         0
         0         0         0         0         0         0         0         0
         0         0         0         0         0         0         0         0
         0         0         0         0         0         0         0         0
         0         0         0         0         0         0         0         0
         0         0         0         0         0         0         0         0
         0         0         0         0         0         0         0         0
         0         0         0         0         0         0         0         0
         0         0         0         0         0         0         0         0
         0         0         0         0         0         0         0         0
         0         0         0         0         0         0         0         0
         0         0         0         0         0         0         0         0
         0         0         0         0         0         0         0         0
         0         0         0         0         0         0         0         0
         0         0         0         0         0         0         0         0
         0         0         0         0         0         0         0         0
         0         0         0         0         0         0         0         0
         0         0         0         0         0         0         0         0
         0         0         0         0         0         0         0         0
         0         0         0         0         0         0         0         0
         0         0         0         0         0         0         0         0
         0         0         0         0         0         0         0         0
         0         0         0         0         0         0         0         0
         0         0         0         0         0         0         0         0
         0         0         0         0         0         0         0         0
         0         0         0         0         0         0         0         0
         0         0         0         0         0         0         0         0
         0         0         0         0         0         0         0         0
         0         0         0         0         0         0         0         0
         0         0         0         0         0         0         0         0
         0         0         0         0         0         0         0         0
         0         0         0         0         0         0         0         0
         0         0         0         0         0         0         0         0
         0         0         0         0         0         0         0         0
         0         0         0         0         0         0         0         0
         0         0         0         0         0         0         0         0
         0         0         0         0         0         0         0         0
         0         0         0         0         0         0         0         0
         0         0         0         0         0         0         0         0
         0         0         0         0         0         0         0         0
         0         0         0         0         0         0         0         0
         0         0         0         0         0         0         0         0
         0         0         0         0         0         0         0         0
         0         0         0         0         0         0         0         0
         0         0         0         0         0         0         0         0
         0         0         0         0         0         0         0         0
         0         0         0         0         0         0         0         0
         0         0         0         0         0         0         0         0
         0         0         0         0         0         0         0         0
         0         0         0         0         0         0         0         0
         0         0         0         0         0         0         0         0
         0         0         0         0         0         0         0         0
         0         0         0         0         0         0         0         0
         0         0         0         0         0         0         0         0
         0         0         0         0         0         0         0         0
         0         0         0         0         0         0         0         0
         0         0         0         0         0         0         0         0
         0         0         0         0         0         0         0         0
         0         0         0         0         0         0         0         0
         0         0         0         0         0         0         0         0
         0         0         0         0         0         0         0         0
         0         0         0         0         0         0         0         0
         0         0         0         0         0         0         0         0
         0         0         0         0         0         0         0         0
         0         0         0         0         0         0         0         0
         0         0         0         0         0         0         0         0
         0         0         0         0         0         0         0         0
         0         0         0         0         0         0         0         0
         0         0         0         0         0         0         0         0
         0         0         0         0         0         0         0         0
         0         0         0         0         0         0         0         0
         0         0         0         0         0         0         0         0
         0         0         0         0         0         0         0         0
         0         0         0         0         0         0         0         0
         0         0         0         0         0         0         0         0
         0         0         0         0         0         0         0         0
         0         0         0         0         0         0         0         0
         0         0         0         0         0         0         0         0
         0         0         0         0         0         0         0         0
         0         0         0         0         0         0         0         0
         0         0         0         0         0         0         0         0
         0         0         0         0         0         0         0         0
         0         0         0         0         0         0         0         0
         0         0         0         0         0         0         0         0
         0         0         0         0         0         0         0         0
         0         0         0         0         0         0         0         0
         0         0         0         0         0         0         0         0
         0         0         0         0         0         0         0         0
         0         0         0         0         0         0         0         0
         0         0         0         0         0         0         0         0
         0         0         0         0         0         0         0         0
         0         0         0         0         0         0         0         0
         0         0         0         0         0         0         0         0
         0         0         0         0         0         0         0         0
         0         0         0         0         0         0         0         0
         0         0         0         0         0         0         0         0
         0         0         0         0         0         0         0         0
         0         0         0         0         0         0         0         0
         0         0         0         0         0         0         0         0
         0         0         0         0         0         0         0         0
         0         0         0         0         0         0         0         0
         0         0         0         0         0         0         0         0
         0         0         0         0         0         0         0         0
         0         0         0         0         0         0         0         0
         0         0         0         0         0         0         0         0
         0         0         0         0         0         0         0         0
         0         0         0         0         0         0         0         0
         0         0         0         0         0         0         0         0
         0         0         0         0         0         0         0         0
         0         0         0         0         0         0         0         0
         0         0         0         0         0         0         0         0
         0         0         0         0         0         0         0         0
         0         0         0         0         0         0         0         0
         0         0         0         0         0         0         0         0
         0         0         0         0         0         0         0         0
         0         0         0         0         0         0         0         0
         0         0         0         0         0         0         0         0
         0         0         0         0         0         0         0         0
         0         0         0         0         0         0         0         0
         0         0         0         0         0         0         0         0
         0         0         0         0         0         0         0         0
         0         0         0         0         0         0         0         0
         0         0         0         0         0         0         0         0
         0         0         0         0         0         0         0         0
         0         0         0         0         0         0         0         0
         0         0         0         0         0         0         0         0
         0         0         0         0         0         0         0         0
         0         0         0         0         0         0         0         0
         0         0         0         0         0         0         0         0
         0         0         0         0         0         0         0         0
         0         0         0         0         0         0         0         0
         0         0         0         0         0         0         0         0
         0         0         0         0         0         0         0         0
         0         0         0         0         0         0         0         0
         0         0         0         0         0         0         0         0
         0         0         0         0         0         0         0         0
         0         0         0         0         0         0         0         0
         0         0         0         0         0         0         0         0
         0         0         0         0         0         0         0         0
         0         0         0         0         0         0         0         0
         0         0         0         0         0         0         0         0
         0         0         0         0         0         0         0         0
         0         0         0         0         0         0         0         0
         0         0         0         0         0         0         0         0
         0         0         0         0         0         0         0         0
         0         0         0         0         0         0         0         0
         0         0         0         0         0         0         0         0
         0         0         0         0         0         0         0         0
         0         0         0         0         0         0         0         0
         0         0         0         0         0         0         0         0
         0         0         0         0         0         0         0         0
         0         0         0         0         0         0         0         0
         0         0         0         0         0         0         0         0
         0         0         0         0         0         0         0         0
         0         0         0         0         0         0         0         0
         0         0         0         0         0         0         0         0
         0         0         0         0         0         0         0         0
         0         0         0         0         0         0         0         0
         0         0         0         0         0         0         0         0
         0         0         0         0         0         0         0         0
         0         0         0         0         0         0         0         0
         0         0         0         0         0         0         0         0
         0         0         0         0         0         0         0         0
         0         0         0         0         0         0         0         0
         0         0         0         0         0         0         0         0
         0         0         0         0         0         0         0         0
         0         0         0         0         0         0         0         0
         0         0         0         0         0         0         0         0
         0         0         0         0         0         0         0         0
         0         0         0         0         0         0         0         0
         0         0         0         0         0         0         0         0
         0         0         0         0         0         0         0         0
         0         0         0         0         0         0         0         0
         0         0         0         0         0         0         0         0
         0         0         0         0         0         0         0         0
         0         0         0         0         0         0         0         0
         0         0         0         0         0         0         0         0
         0         0         0         0         0         0         0         0
         0         0         0         0         0         0         0         0
         0         0         0         0         0         0         0         0
         0         0         0         0         0         0         0         0
         0         0         0         0         0         0         0         0
         0         0         0         0         0         0         0         0
         0         0         0         0         0         0         0         0
         0         0         0         0         0         0         0         0
         0         0         0         0         0         0         0         0
         0         0         0         0         0         0         0         0
         0         0         0         0         0         0         0         0
         0         0         0         0         0         0         0         0
         0         0         0         0         0         0         0         0
         0         0         0         0         0         0         0         0
         0         0         0         0         0         0         0         0
         0         0         0         0         0         0         0         0
         0         0         0         0         0         0         0         0
         0         0         0         0         0         0         0         0
         0         0         0         0         0         0         0         0
         0         0         0         0         0         0         0         0
         0         0         0         0         0         0         0         0
         0         0         0         0         0         0         0         0
         0         0         0         0         0         0         0         0
         0         0         0         0         0         0         0         0
         0         0         0         0         0         0         0         0
         0         0         0         0         0         0         0         0
         0         0         0         0         0         0         0         0
         0         0         0         0         0         0         0         0
         0         0         0         0         0         0         0         0
         0         0         0         0         0         0         0         0
         0         0         0         0         0         0         0         0
         0         0         0         0         0         0         0         0
         0         0         0         0         0         0         0         0
         0         0         0         0         0         0         0         0
         0         0         0         0         0         0         0         0
         0         0         0         0         0         0         0         0
         0         0         0         0         0         0         0         0
         0         0         0         0         0         0         0         0
         0         0         0         0         0         0         0         0
         0         0         0         0         0         0         0         0
         0         0         0         0         0         0         0         0
         0         0         0         0         0         0         0         0
         0         0         0         0         0         0         0         0
         0         0         0         0         0         0         0         0
         0         0         0         0         0         0         0         0
         0         0         0         0         0         0         0         0
         0         0         0         0         0         0         0         0
         0         0         0         0         0         0         0         0
         0         0         0         0         0         0         0         0
         0         0         0         0         0         0         0         0
         0         0         0         0         0         0         0         0
         0         0         0         0         0         0         0         0
         0         0         0         0         0         0         0         0
         0         0         0         0         0         0         0         0
         0         0         0         0         0         0         0         0
         0         0         0         0         0         0         0         0
         0         0         0         0         0         0         0         0
         0         0         0         0         0         0         0         0
         0         0         0         0         0         0         0         0
         0         0         0         0         0         0         0         0
         0         0         0         0         0         0         0         0
         0         0         0         0         0         0         0         0
         0         0         0         0         0         0         0         0
         0         0         0         0         0         0         0         0
         0         0         0         0         0         0         0         0
         0         0         0         0         0         0         0         0
         0         0         0         0         0         0         0         0
         0         0         0         0         0         0         0         0
         0         0         0         0         0         0         0         0
         0         0         0         0         0         0         0         0
         0         0         0         0         0         0         0         0
         0         0         0         0         0         0         0         0
         0         0         0         0         0         0         0         0
         0         0         0         0         0         0         0         0
         0         0         0         0         0         0         0         0
         0         0         0         0         0         0         0         0
         0         0         0         0         0         0         0         0
         0         0         0         0         0         0         0         0
         0         0         0         0         0         0         0         0
         0         0         0         0         0         0         0         0
         0         0         0         0         0         0         0         0
         0         0         0         0         0         0         0         0
         0         0         0         0         0         0         0         0
         0         0         0         0         0         0         0         0
         0         0         0         0         0         0         0         0
         0         0         0         0         0         0         0         0
         0         0         0         0         0         0         0         0
         0         0         0         0         0         0         0         0
         0         0         0         0         0         0         0         0
         0         0         0         0         0         0         0         0
         0         0         0         0         0         0         0         0
         0         0         0         0         0         0         0         0
         0         0         0         0         0         0         0         0
         0         0         0         0         0         0         0         0
         0         0         0         0         0         0         0         0
         0         0         0         0         0         0         0         0
         0         0         0         0         0         0         0         0
         0         0         0         0         0         0         0         0
         0         0         0         0         0         0         0         0
         0         0         0         0         0         0         0         0
         0         0         0         0         0         0         0         0
         0         0         0         0         0         0         0         0
         0         0         0         0         0         0         0         0
         0         0         0         0         0         0         0         0
         0         0         0         0         0         0         0         0
         0         0         0         0         0         0         0         0
         0         0         0         0         0         0         0         0
         0         0         0         0         0         0         0         0
         0         0         0         0         0         0         0         0
         0         0         0         0         0         0         0         0
         0         0         0         0         0         0         0         0
         0         0         0         0         0         0         0         0
         0         0         0         0         0         0         0         0
         0         0         0         0         0         0         0         0
         0         0         0         0         0         0         0         0
         0         0         0         0         0         0         0         0
         0         0         0         0         0         0         0         0
         0         0         0         0         0         0         0         0
         0         0         0         0         0         0         0         0
         0         0         0         0         0         0         0         0
         0         0         0         0         0         0         0         0
         0         0         0         0         0         0         0         0
         0         0         0         0         0         0         0         0
         0         0         0         0         0         0         0         0
         0         0         0         0         0         0         0         0
         0         0         0         0         0         0         0         0
         0         0         0         0         0         0         0         0
         0         0         0         0         0         0         0         0
         0         0         0         0         0         0         0         0
         0         0         0         0         0         0         0         0
         0         0         0         0         0         0         0         0
         0         0         0         0         0         0         0         0
         0         0         0         0         0         0         0         0
         0         0         0         0         0         0         0         0
         0         0         0         0         0         0         0         0
         0         0         0         0         0         0         0         0
         0         0         0         0         0         0         0         0
         0         0         0         0         0         0         0         0
         0         0         0         0         0         0         0         0
         0         0         0         0         0         0         0         0
         0         0         0         0         0         0         0         0
         0         0         0         0         0         0         0         0
         0         0         0         0         0         0         0         0
         0         0         0         0         0         0         0         0
         0         0         0         0         0         0         0         0
         0         0         0         0         0         0         0         0
         0         0         0         0         0         0         0         0
         0         0         0         0         0         0         0         0
         0         0         0         0         0         0         0         0
         0         0         0         0         0         0         0         0
         0         0         0         0         0         0         0         0
         0         0         0         0         0         0         0         0
         0         0         0         0         0         0         0         0
         0         0         0         0         0         0         0         0
         0         0         0         0         0         0         0         0
         0         0         0         0         0         0         0         0
         0         0         0         0         0         0         0         0
         0         0         0         0         0         0         0         0
         0         0         0         0         0         0         0         0
         0         0         0         0         0         0         0         0
         0         0         0         0         0         0         0         0
         0         0         0         0         0         0         0         0
         0         0         0         0         0         0         0         0
         0         0         0         0         0         0         0         0
         0         0         0         0         0         0         0         0
         0         0         0         0         0         0         0         0
         0         0         0         0         0         0         0         0
         0         0         0         0         0         0         0         0
         0         0         0         0         0         0         0         0
         0         0         0         0         0         0         0         0
         0         0         0         0         0         0         0         0
         0         0         0         0         0         0         0         0
         0         0         0         0         0         0         0         0
         0         0         0         0         0         0         0         0
         0         0         0         0         0         0         0         0
         0         0         0         0         0         0         0         0
         0         0         0         0         0         0         0         0
         0         0         0         0         0         0         0         0
         0         0         0         0         0         0         0         0
         0         0         0         0         0         0         0         0
         0         0         0         0         0         0         0         0
         0         0         0         0         0         0         0         0
         0         0         0         0         0         0         0         0
         0         0         0         0         0         0         0         0
         0         0         0         0         0         0         0         0
         0         0         0         0         0         0         0         0
         0         0         0         0         0         0         0         0
         0         0         0         0         0         0         0         0
         0         0         0         0         0         0         0         0
         0         0         0         0         0         0         0         0
         0         0         0         0         0         0         0         0
         0         0         0         0         0         0         0         0
         0         0         0         0         0         0         0         0
         0         0         0         0         0         0         0         0
         0         0         0         0         0         0         0         0
         0         0         0         0         0         0         0         0
         0         0         0         0         0         0         0         0
         0         0         0         0         0         0         0         0
         0         0         0         0         0         0         0         0
         0         0         0         0         0         0         0         0
         0         0         0         0         0         0         0         0
         0         0         0         0         0         0         0         0
         0         0         0         0         0         0         0         0
         0         0         0         0         0         0         0         0
         0         0         0         0         0         0         0         0
         0         0         0         0         0         0         0         0
         0         0         0         0         0         0         0         0
         0         0         0         0         0         0         0         0
         0         0         0         0         0         0         0         0
         0         0         0         0         0         0         0         0
         0         0         0         0         0         0         0         0
         0         0         0         0         0         0         0         0
         0         0         0         0         0         0         0         0
         0         0         0         0         0         0         0         0
         0         0         0         0         0         0         0         0
         0         0         0         0         0         0         0         0
         0         0         0         0         0         0         0         0
         0         0         0         0         0         0         0         0
         0         0         0         0         0         0         0         0
         0         0         0         0         0         0         0         0
         0         0         0         0         0         0         0         0
         0         0         0         0         0         0         0         0
         0         0         0         0         0         0         0         0
         0         0         0         0         0         0         0         0
         0         0         0         0         0         0         0         0
         0         0         0         0         0         0         0         0
         0         0         0         0         0         0         0         0
         0         0         0         0         0         0         0         0
         0         0         0         0         0         0         0         0
         0         0         0         0         0         0         0         0
         0         0         0         0         0         0         0         0
         0         0         0         0         0         0         0         0
         0         0         0         0         0         0         0         0
         0         0         0         0         0         0         0         0
         0         0         0         0         0         0         0         0
         0         0         0         0         0         0         0         0
         0         0         0         0         0         0         0         0
         0         0         0         0         0         0         0         0
         0         0         0         0         0         0         0         0
         0         0         0         0         0         0         0         0
         0         0         0         0         0         0         0         0
         0         0         0         0         0         0         0         0
         0         0         0         0         0         0         0         0
         0         0         0         0         0         0         0         0
         0         0         0         0         0         0         0         0
         0         0         0         0         0         0         0         0
         0         0         0         0         0         0         0         0
         0         0         0         0         0         0         0         0
         0         0         0         0         0         0         0         0
         0         0         0         0         0         0         0         0
         0         0         0         0         0         0         0         0
         0         0         0         0         0         0         0         0
         0         0         0         0         0         0         0         0
         0         0         0         0         0         0         0         0
         0         0         0         0         0         0         0         0
         0         0         0         0         0         0         0         0
         0         0         0         0         0         0         0         0
         0         0         0         0         0         0         0         0
         0         0         0         0         0         0         0         0
         0         0         0         0         0         0         0         0
         0         0         0         0         0         0         0         0
         0         0         0         0         0         0         0         0
         0         0         0         0         0         0         0         0
         0         0         0         0         0         0         0         0
         0         0         0         0         0         0         0         0
         0         0         0         0         0         0         0         0
         0         0         0         0         0         0         0         0
         0         0         0         0         0         0         0         0
         0         0         0         0         0         0         0         0
         0         0         0         0         0         0         0         0
         0         0         0         0         0         0         0         0
         0         0         0         0         0         0         0         0
         0         0         0         0         0         0         0         0
         0         0         0         0         0         0         0         0
         0         0         0         0         0         0         0         0
         0         0         0         0         0         0         0         0
         0         0         0         0         0         0         0         0
         0         0         0         0         0         0         0         0
         0         0         0         0         0         0         0         0
         0         0         0         0         0         0         0         0
         0         0         0         0         0         0         0         0
         0         0         0         0         0         0         0         0
         0         0         0         0         0         0         0         0
         0         0         0         0         0         0         0         0
         0         0         0         0         0         0         0         0
         0         0         0         0         0         0         0         0
         0         0         0         0         0         0         0         0
         0         0         0         0         0         0         0         0
         0         0         0         0         0         0         0         0
         0         0         0         0         0         0         0         0
         0         0         0         0         0         0         0         0
         0         0         0         0         0         0         0         0
         0         0         0         0         0         0         0         0
         0         0         0         0         0         0         0         0
         0         0         0         0         0         0         0         0
         0         0         0         0         0         0         0         0
         0         0         0         0         0         0         0         0
         0         0         0         0         0         0         0         0
         0         0         0         0         0         0         0         0
         0         0         0         0         0         0         0         0
         0         0         0         0         0         0         0         0
         0         0         0         0         0         0         0         0
         0         0         0         0         0         0         0         0
         0         0         0         0         0         0         0         0
         0         0         0         0         0         0         0         0
         0         0         0         0         0         0         0         0
         0         0         0         0         0         0         0         0
         0         0         0         0         0         0         0         0
         0         0         0         0         0         0         0         0
         0         0         0         0         0         0         0         0
         0         0         0         0         0         0         0         0
         0         0         0         0         0         0         0         0
         0         0         0         0         0         0         0         0
         0         0         0         0         0         0         0         0
         0         0         0         0         0         0         0         0
         0         0         0         0         0         0         0         0
         0         0         0         0         0         0         0         0
         0         0         0         0         0         0         0         0
         0         0         0         0         0         0         0         0
         0         0         0         0         0         0         0         0
         0         0         0         0         0         0         0         0
         0         0         0         0         0         0         0         0
         0         0         0         0         0         0         0         0
         0         0         0         0         0         0         0         0
         0         0         0         0         0         0         0         0
         0         0         0         0         0         0         0         0
         0         0         0         0         0         0         0         0
         0         0         0         0         0         0         0         0
         0         0         0         0         0         0         0         0
         0         0         0         0         0         0         0         0
         0         0         0         0         0         0         0         0
         0         0         0         0         0         0         0         0
         0         0         0         0         0         0         0         0
         0         0         0         0         0         0         0         0
         0         0         0         0         0         0         0         0
         0         0         0         0         0         0         0         0
         0         0         0         0         0         0         0         0
         0         0         0         0         0         0         0         0
         0         0         0         0         0         0         0         0
         0         0         0         0         0         0         0         0
         0         0         0         0         0         0         0         0
         0         0         0         0         0         0         0         0
         0         0         0         0         0         0         0         0
         0         0         0         0         0         0         0         0
         0         0         0         0         0         0         0         0
         0         0         0         0         0         0         0         0
         0         0         0         0         0         0         0         0
         0         0         0         0         0         0         0         0
         0         0         0         0         0         0         0         0
         0         0         0         0         0         0         0         0
         0         0         0         0         0         0         0         0
         0         0         0         0         0         0         0         0
         0         0         0         0         0         0         0         0
         0         0         0         0         0         0         0         0
         0         0         0         0         0         0         0         0
         0         0         0         0         0         0         0         0
         0         0         0         0         0         0         0         0
         0         0         0         0         0         0         0         0
         0         0         0         0         0         0         0         0
         0         0         0         0         0         0         0         0
         0         0         0         0         0         0         0         0
         0         0         0         0         0         0         0         0
         0         0         0         0         0         0         0         0
         0         0         0         0         0         0         0         0
         0         0         0         0         0         0         0         0
         0         0         0         0         0         0         0         0
         0         0         0         0         0         0         0         0
         0         0         0         0         0         0         0         0
         0         0         0         0         0         0         0         0
         0         0         0         0         0         0         0         0
         0         0         0         0         0         0         0         0
         0         0         0         0         0         0         0         0
         0         0         0         0         0         0         0         0
         0         0         0         0         0         0         0         0
         0         0         0         0         0         0         0         0
         0         0         0         0         0         0         0         0
         0         0         0         0         0         0         0         0
         0         0         0         0         0         0         0         0
         0         0         0         0         0         0         0         0
         0         0         0         0         0         0         0         0
         0         0         0         0         0         0         0         0
         0         0         0         0         0         0         0         0
         0         0         0         0         0         0         0         0
         0         0         0         0         0         0         0         0
         0         0         0         0         0         0         0         0
         0         0         0         0         0         0         0         0
         0         0         0         0         0         0         0         0
         0         0         0         0         0         0         0         0
         0         0         0         0         0         0         0         0
         0         0         0         0         0         0         0         0
         0         0         0         0         0         0         0         0
         0         0         0         0         0         0         0         0
         0         0         0         0         0         0         0         0
         0         0         0         0         0         0         0         0
         0         0         0         0         0         0         0         0
         0         0         0         0         0         0         0         0
         0         0         0         0         0         0         0         0
         0         0         0         0         0         0         0         0
         0         0         0         0         0         0         0         0
         0         0         0         0         0         0         0         0
         0         0         0         0         0         0         0         0
         0         0         0         0         0         0         0         0
         0         0         0         0         0         0         0         0
         0         0         0         0         0         0         0         0
         0         0         0         0         0         0         0         0
         0         0         0         0         0         0         0         0
         0         0         0         0         0         0         0         0
         0         0         0         0         0         0         0         0
         0         0         0         0         0         0         0         0
         0         0         0         0         0         0         0         0
         0         0         0         0         0         0         0         0
         0         0         0         0         0         0         0         0
         0         0         0         0         0         0         0         0
         0         0         0         0         0         0         0         0
         0         0         0         0         0         0         0         0
         0         0         0         0         0         0         0         0
         0         0         0         0         0         0         0         0
         0         0         0         0         0         0         0         0
         0         0         0         0         0         0         0         0
         0         0         0         0         0         0         0         0
         0         0         0         0         0         0         0         0
         0         0         0         0         0         0         0         0
         0         0         0         0         0         0         0         0
         0         0         0         0         0         0         0         0
         0         0         0         0         0         0         0         0
         0         0         0         0         0         0         0         0
         0         0         0         0         0         0         0         0
         0         0         0         0         0         0         0         0
         0         0         0         0         0         0         0         0
         0         0         0         0         0         0         0         0
         0         0         0         0         0         0         0         0
         0         0         0         0         0         0         0         0
         0         0         0         0         0         0         0         0
         0         0         0         0         0         0         0         0
         0         0         0         0         0         0         0         0
         0         0         0         0         0         0         0         0
         0         0         0         0         0         0         0         0
         0         0         0         0         0         0         0         0
         0         0         0         0         0         0         0         0
         0         0         0         0         0         0         0         0
         0         0         0         0         0         0         0         0
         0         0         0         0         0         0         0         0
         0         0         0         0         0         0         0         0
         0         0         0         0         0         0         0         0
         0         0         0         0         0         0         0         0
         0         0         0         0         0         0         0         0
         0         0         0         0         0         0         0         0
         0         0         0         0         0         0         0         0
         0         0         0         0         0         0         0         0
         0         0         0         0         0         0         0         0
         0         0         0         0         0         0         0         0
         0         0         0         0         0         0         0         0
         0         0         0         0         0         0         0         0
         0         0         0         0         0         0         0         0
         0         0         0         0         0         0         0         0
         0         0         0         0         0         0         0         0
         0         0         0         0         0         0         0         0
         0         0         0         0         0         0         0         0
         0         0         0         0         0         0         0         0
         0         0         0         0         0         0         0         0
         0         0         0         0         0         0         0         0
         0         0         0         0         0         0         0         0
         0         0         0         0         0         0         0         0
         0         0         0         0         0         0         0         0
         0         0         0         0         0         0         0         0
         0         0         0         0         0         0         0         0
         0         0         0         0         0         0         0         0
         0         0         0         0         0         0         0         0
         0         0         0         0         0         0         0         0
         0         0         0         0         0         0         0         0
         0         0         0         0         0         0         0         0
         0         0         0         0         0         0         0         0
         0         0         0         0         0         0         0         0
         0         0         0         0         0         0         0         0
         0         0         0         0         0         0         0         0
         0         0         0         0         0         0         0         0
         0         0         0         0         0         0         0         0
         0         0         0         0         0         0         0         0
         0         0         0         0         0         0         0         0
         0         0         0         0         0         0         0         0
         0         0         0         0         0         0         0         0
         0         0         0         0         0         0         0         0
         0         0         0         0         0         0         0         0
         0         0         0         0         0         0         0         0
         0         0         0         0         0         0         0         0
         0         0         0         0         0         0         0         0
         0         0         0         0         0         0         0         0
         0         0         0         0         0         0         0         0
         0         0         0         0         0         0         0         0
         0         0         0         0         0         0         0         0
         0         0         0         0         0         0         0         0
         0         0         0         0         0         0         0         0
         0         0         0         0         0         0         0         0
         0         0         0         0         0         0         0         0
         0         0         0         0         0         0         0         0
         0         0         0         0         0         0         0         0
         0         0         0         0         0         0         0         0
         0         0         0         0         0         0         0         0
         0         0         0         0         0         0         0         0
         0         0         0         0         0         0         0         0
         0         0         0         0         0         0         0         0
         0         0         0         0         0         0         0         0
         0         0         0         0         0         0         0         0
         0         0         0         0         0         0         0         0
         0         0         0         0         0         0         0         0
         0         0         0         0         0         0         0         0
         0         0         0         0         0         0         0         0
         0         0         0         0         0         0         0         0
         0         0         0         0         0         0         0         0
         0         0         0         0         0         0         0         0
         0         0         0         0         0         0         0         0
         0         0         0         0         0         0         0         0
         0         0         0         0         0         0         0         0
         0         0         0         0         0         0         0         0
         0         0         0         0         0         0         0         0
         0         0         0         0         0         0         0         0
         0         0         0         0         0         0         0         0
         0         0         0         0         0         0         0         0
         0         0         0         0         0         0         0         0
         0         0         0         0         0         0         0         0
         0         0         0         0         0         0         0         0
         0         0         0         0         0         0         0         0
         0         0         0         0         0         0         0         0
         0         0         0         0         0         0         0         0
         0         0         0         0         0         0         0         0
         0         0         0         0         0         0         0         0
         0         0         0         0         0         0         0         0
         0         0         0         0         0         0         0         0
         0         0         0         0         0         0         0         0
         0         0         0         0         0         0         0         0
         0         0         0         0         0         0         0         0
         0         0         0         0         0         0         0         0
         0         0         0         0         0         0         0         0
         0         0         0         0         0         0         0         0
         0         0         0         0         0         0         0         0
         0         0         0         0         0         0         0         0
         0         0         0         0         0         0         0         0
         0         0         0         0         0         0         0         0
         0         0         0         0         0         0         0         0
         0         0         0         0         0         0         0         0
         0         0         0         0         0         0         0         0
         0         0         0         0         0         0         0         0
         0         0         0         0         0         0         0         0
         0         0         0         0         0         0         0         0
         0         0         0         0         0         0         0         0
         0         0         0         0         0         0         0         0
         0         0         0         0         0         0         0         0
         0         0         0         0         0         0         0         0
         0         0         0         0         0         0         0         0
         0         0         0         0         0         0         0         0
         0         0         0         0         0         0         0         0
         0         0         0         0         0         0         0         0
         0         0         0         0         0         0         0         0
         0         0         0         0         0         0         0         0
         0         0         0         0         0         0         0         0
         0         0         0         0         0         0         0         0
         0         0         0         0         0         0         0         0
         0         0         0         0         0         0         0         0
         0         0         0         0         0         0         0         0
         0         0         0         0         0         0         0         0
         0         0         0         0         0         0         0         0
         0         0         0         0         0         0         0         0
         0         0         0         0         0         0         0         0
         0         0         0         0         0         0         0         0
         0         0         0         0         0         0         0         0
         0         0         0         0         0         0         0         0
         0         0         0         0         0         0         0         0
         0         0         0         0         0         0         0         0
         0         0         0         0         0         0         0         0
         0         0         0         0         0         0         0         0
         0         0         0         0         0         0         0         0
         0         0         0         0         0         0         0         0
         0         0         0         0         0         0         0         0
         0         0         0         0         0         0         0         0
         0         0         0         0         0         0         0         0
         0         0         0         0         0         0         0         0
         0         0         0         0         0         0         0         0
         0         0         0         0         0         0         0         0
         0         0         0         0         0         0         0         0
         0         0         0         0         0         0         0         0
         0         0         0         0         0         0         0         0
         0         0         0         0         0         0         0         0
         0         0         0         0         0         0         0         0
         0         0         0         0         0         0         0         0
         0         0         0         0         0         0         0         0
         0         0         0         0         0         0         0         0
         0         0         0         0         0         0         0         0
         0         0         0         0         0         0         0         0
         0         0         0         0         0         0         0         0
         0         0         0         0         0         0         0         0
         0         0         0         0         0         0         0         0
         0         0         0         0         0         0         0         0
         0         0         0         0         0         0         0         0
         0         0         0         0         0         0         0         0
         0         0         0         0         0         0         0         0
         0         0         0         0         0         0         0         0
         0         0         0         0         0         0         0         0
         0         0         0         0         0         0         0         0
         0         0         0         0         0         0         0         0
         0         0         0         0         0         0         0         0
         0         0         0         0         0         0         0         0
         0         0         0         0         0         0         0         0
         0         0         0         0         0         0         0         0
         0         0         0         0         0         0         0         0
         0         0         0         0         0         0         0         0
         0         0         0         0         0         0         0         0
         0         0         0         0         0         0         0         0
         0         0         0         0         0         0         0         0
         0         0         0         0         0         0         0         0
         0         0         0         0         0         0         0         0
         0         0         0         0         0         0         0         0
         0         0         0         0         0         0         0         0
         0         0         0         0         0         0         0         0
         0         0         0         0         0         0         0         0
         0         0         0         0         0         0         0         0
         0         0         0         0         0         0         0         0
         0         0         0         0         0         0         0         0
         0         0         0         0         0         0         0         0
         0         0         0         0         0         0         0         0
         0         0         0         0         0         0         0         0
         0         0         0         0         0         0         0         0
         0         0         0         0         0         0         0         0
         0         0         0         0         0         0         0         0
         0         0         0         0         0         0         0         0
         0         0         0         0         0         0         0         0
         0         0         0         0         0         0         0         0
         0         0         0         0         0         0         0         0
         0         0         0         0         0         0         0         0
         0         0         0         0         0         0         0         0
         0         0         0         0         0         0         0         0
         0         0         0         0         0         0         0         0
         0         0         0         0         0         0         0         0
         0         0         0         0         0         0         0         0
         0         0         0         0         0         0         0         0
         0         0         0         0         0         0         0         0
         0         0         0         0         0         0         0         0
         0         0         0         0         0         0         0         0
         0         0         0         0         0         0         0         0
         0         0         0         0         0         0         0         0
         0         0         0         0         0         0         0         0
         0         0         0         0         0         0         0         0
         0         0         0         0         0         0         0         0
         0         0         0         0         0         0         0         0
         0         0         0         0         0         0         0         0
         0         0         0         0         0         0         0         0
         0         0         0         0         0         0         0         0
         0         0         0         0         0         0         0         0
         0         0         0         0         0         0         0         0
         0         0         0         0         0         0         0         0
         0         0         0         0         0         0         0         0
         0         0         0         0         0         0         0         0
         0         0         0         0         0         0         0         0
         0         0         0         0         0         0         0         0
         0         0         0         0         0         0         0         0
         0         0         0         0         0         0         0         0
         0         0         0         0         0         0         0         0
         0         0         0         0         0         0         0         0
         0         0         0         0         0         0         0         0
         0         0         0         0         0         0         0         0
         0         0         0         0         0         0         0         0
         0         0         0         0         0         0         0         0
         0         0         0         0         0         0         0         0
         0         0         0         0         0         0         0         0
         0         0         0         0         0         0         0         0
         0         0         0         0         0         0         0         0
         0         0         0         0         0         0         0         0
         0         0         0         0         0         0         0         0
         0         0         0         0         0         0         0         0
         0         0         0         0         0         0         0         0
         0         0         0         0         0         0         0         0
         0         0         0         0         0         0         0         0
         0         0         0         0         0         0         0         0
         0         0         0         0         0         0         0         0
         0         0         0         0         0         0         0         0
         0         0         0         0         0         0         0         0
         0         0         0         0         0         0         0         0
         0         0         0         0         0         0         0         0
         0         0         0         0         0         0         0         0
         0         0         0         0         0         0         0         0
         0         0         0         0         0         0         0         0
         0         0         0         0         0         0         0         0
         0         0         0         0         0         0         0         0
         0         0         0         0         0         0         0         0
         0         0         0         0         0         0         0         0
         0         0         0         0         0         0         0         0
         0         0         0         0         0         0         0         0
         0         0         0         0         0         0         0         0
         0         0         0         0         0         0         0         0
         0         0         0         0         0         0         0         0
         0         0         0         0         0         0         0         0
         0         0         0         0         0         0         0         0
         0         0         0         0         0         0         0         0
         0         0         0         0         0         0         0         0
         0         0         0         0         0         0         0         0
         0         0         0         0         0         0         0         0
         0         0         0         0         0         0         0         0
         0         0         0         0         0         0         0         0
         0         0         0         0         0         0         0         0
         0         0         0         0         0         0         0         0
         0         0         0         0         0         0         0         0
         0         0         0         0         0         0         0         0
         0         0         0         0         0         0         0         0
         0         0         0         0         0         0         0         0
         0         0         0         0         0         0         0         0
         0         0         0         0         0         0         0         0
         0         0         0         0         0         0         0         0
         0         0         0         0         0         0         0         0
         0         0         0         0         0         0         0         0
         0         0         0         0         0         0         0         0
         0         0         0         0         0         0         0         0
         0         0         0         0         0         0         0         0
         0         0         0         0         0         0         0         0
         0         0         0         0         0         0         0         0
         0         0         0         0         0         0         0         0
         0         0         0         0         0         0         0         0
         0         0         0         0         0         0         0         0
         0         0         0         0         0         0         0         0
         0         0         0         0         0         0         0         0
         0         0         0         0         0         0         0         0
         0         0         0         0         0         0         0         0
         0         0         0         0         0         0         0         0
         0         0         0         0         0         0         0         0
         0         0         0         0         0         0         0         0
         0         0         0         0         0         0         0         0
         0         0         0         0         0         0         0         0
         0         0         0         0         0         0         0         0
         0         0         0         0         0         0         0         0
         0         0         0         0         0         0         0         0
         0         0         0         0         0         0         0         0
         0         0         0         0         0         0         0         0
         0         0         0         0         0         0         0         0
         0         0         0         0         0         0         0         0
         0         0         0         0         0         0         0         0
         0         0         0         0         0         0         0         0
         0         0         0         0         0         0         0         0
         0         0         0         0         0         0         0         0
         0         0         0         0         0         0         0         0
         0         0         0         0         0         0         0         0
         0         0         0         0         0         0         0         0
         0         0         0         0         0         0         0         0
         0         0         0         0         0         0         0         0
         0         0         0         0         0         0         0         0
         0         0         0         0         0         0         0         0
         0         0         0         0         0         0         0         0
         0         0         0         0         0         0         0         0
         0         0         0         0         0         0         0         0
         0         0         0         0         0         0         0         0
         0         0         0         0         0         0         0         0
         0         0         0         0         0         0         0         0
         0         0         0         0         0         0         0         0
         0         0         0         0         0         0         0         0
         0         0         0         0         0         0         0         0
         0         0         0         0         0         0         0         0
         0         0         0         0         0         0         0         0
         0         0         0         0         0         0         0         0
         0         0         0         0         0         0         0         0
         0         0         0         0         0         0         0         0
         0         0         0         0         0         0         0         0
         0         0         0         0         0         0         0         0
         0         0         0         0         0         0         0         0
         0         0         0         0         0         0         0         0
         0         0         0         0         0         0         0         0
         0         0         0         0         0         0         0         0
         0         0         0         0         0         0         0         0
         0         0         0         0         0         0         0         0
         0         0         0         0         0         0         0         0
         0         0         0         0         0         0         0         0
         0         0         0         0         0         0         0         0
         0         0         0         0         0         0         0         0
         0         0         0         0         0         0         0         0
         0         0         0         0         0         0         0         0
         0         0         0         0         0         0         0         0
         0         0         0         0         0         0         0         0
         0         0         0         0         0         0         0         0
         0         0         0         0         0         0         0         0
         0         0         0         0         0         0         0         0
         0         0         0         0         0         0         0         0
         0         0         0         0         0         0         0         0
         0         0         0         0         0         0         0         0
         0         0         0         0         0         0         0         0
         0         0         0         0         0         0         0         0
         0         0         0         0         0         0         0         0
         0         0         0         0         0         0         0         0
         0         0         0         0         0         0         0         0
         0         0         0         0         0         0         0         0
         0         0         0         0         0         0         0         0
         0         0         0         0         0         0         0         0
         0         0         0         0         0         0         0         0
         0         0         0         0         0         0         0         0
         0         0         0         0         0         0         0         0
         0         0         0         0         0         0         0         0
         0         0         0         0         0         0         0         0
         0         0         0         0         0         0         0         0
         0         0         0         0         0         0         0         0
         0         0         0         0         0         0         0         0
         0         0         0         0         0         0         0         0
         0         0         0         0         0         0         0         0
         0         0         0         0         0         0         0         0
         0         0         0         0         0         0         0         0
         0         0         0         0         0         0         0         0
         0         0         0         0         0         0         0         0
         0         0         0         0         0         0         0         0
         0         0         0         0         0         0         0         0
         0         0         0         0         0         0         0         0
         0         0         0         0         0         0         0         0
         0         0         0         0         0         0         0         0
         0         0         0         0         0         0         0         0
         0         0         0         0         0         0         0         0
         0         0         0         0         0         0         0         0
         0         0         0         0         0         0         0         0
         0         0         0         0         0         0         0         0
         0         0         0         0         0         0         0         0
         0         0         0         0         0         0         0         0
         0         0         0         0         0         0         0         0
         0         0         0         0         0         0         0         0
         0         0         0         0         0         0         0         0
         0         0         0         0         0         0         0         0
         0         0         0         0         0         0         0         0
         0         0         0         0         0         0         0         0
         0         0         0         0         0         0         0         0
         0         0         0         0         0         0         0         0
         0         0         0         0         0         0         0         0
         0         0         0         0         0         0         0         0
         0         0         0         0         0         0         0         0
         0         0         0         0         0         0         0         0
         0         0         0         0         0         0         0         0
         0         0         0         0         0         0         0         0
         0         0         0         0         0         0         0         0
         0         0         0         0         0         0         0         0
         0         0         0         0         0         0         0         0
         0         0         0         0         0         0         0         0
         0         0         0         0         0         0         0         0
         0         0         0         0         0         0         0         0
         0         0         0         0         0         0         0         0
         0         0         0         0         0         0         0         0
         0         0         0         0         0         0         0         0
         0         0         0         0         0         0         0         0
         0         0         0         0         0         0         0         0
         0         0         0         0         0         0         0         0
         0         0         0         0         0         0         0         0
         0         0         0         0         0         0         0         0
         0         0         0         0         0         0         0         0
         0         0         0         0         0         0         0         0
         0         0         0         0         0         0         0         0
         0         0         0         0         0         0         0         0
         0         0         0         0         0         0         0         0
         0         0         0         0         0         0         0         0
         0         0         0         0         0         0         0         0
         0         0         0         0         0         0         0         0
         0         0         0         0         0         0         0         0
         0         0         0         0         0         0         0         0
         0         0         0         0         0         0         0         0
         0         0         0         0         0         0         0         0
         0         0         0         0         0         0         0         0
         0         0         0         0         0         0         0         0
         0         0         0         0         0         0         0         0
         0         0         0         0         0         0         0         0
         0         0         0         0         0         0         0         0
         0         0         0         0         0         0         0         0
         0         0         0         0         0         0         0         0
         0         0         0         0         0         0         0         0
         0         0         0         0         0         0         0         0
         0         0         0         0         0         0         0         0
         0         0         0         0         0         0         0         0
         0         0         0         0         0         0         0         0
         0         0         0         0         0         0         0         0
         0         0         0         0         0         0         0         0
         0         0         0         0         0         0         0         0
         0         0         0         0         0         0         0         0
         0         0         0         0         0         0         0         0
         0         0         0         0         0         0         0         0
         0         0         0         0         0         0         0         0
         0         0         0         0         0         0         0         0
         0         0         0         0         0         0         0         0
         0         0         0         0         0         0         0         0
         0         0         0         0         0         0         0         0
         0         0         0         0         0         0         0         0
         0         0         0         0         0         0         0         0
         0         0         0         0         0         0         0         0
         0         0         0         0         0         0         0         0
         0         0         0         0         0         0         0         0
         0         0         0         0         0         0         0         0
         0         0         0         0         0         0         0         0
         0         0         0         0         0         0         0         0
         0         0         0         0         0         0         0         0
         0         0         0         0         0         0         0         0
         0         0         0         0         0         0         0         0
         0         0         0         0         0         0         0         0
         0         0         0         0         0         0         0         0
         0         0         0         0         0         0         0         0
         0         0         0         0         0         0         0         0
         0         0         0         0         0         0         0         0
         0         0         0         0         0         0         0         0
         0         0         0         0         0         0         0         0
         0         0         0         0         0         0         0         0
         0         0         0         0         0         0         0         0
         0         0         0         0         0         0         0         0
         0         0         0         0         0         0         0         0
         0         0         0         0         0         0         0         0
         0         0         0         0         0         0         0         0
         0         0         0         0         0         0         0         0
         0         0         0         0         0         0         0         0
         0         0         0         0         0         0         0         0
         0         0         0         0         0         0         0         0
         0         0         0         0         0         0         0         0
         0         0         0         0         0         0         0         0
         0         0         0         0         0         0         0         0
         0         0         0         0         0         0         0         0
         0         0         0         0         0         0         0         0
         0         0         0         0         0         0         0         0
         0         0         0         0         0         0         0         0
         0         0         0         0         0         0         0         0
         0         0         0         0         0         0         0         0
         0         0         0         0         0         0         0         0
         0         0         0         0         0         0         0         0
         0         0         0         0         0         0         0         0
         0         0         0         0         0         0         0         0
         0         0         0         0         0         0         0         0
         0         0         0         0         0         0         0         0
         0         0         0         0         0         0         0         0
         0         0         0         0         0         0         0         0
         0         0         0         0         0         0         0         0
         0         0         0         0         0         0         0         0
         0         0         0         0         0         0         0         0
         0         0         0         0         0         0         0         0
         0         0         0         0         0         0         0         0
         0         0         0         0         0         0         0         0
         0         0         0         0         0         0         0         0
         0         0         0         0         0         0         0         0
         0         0         0         0         0         0         0         0
         0         0         0         0         0         0         0         0
         0         0         0         0         0         0         0         0
         0         0         0         0         0         0         0         0
         0         0         0         0         0         0         0         0
         0         0         0         0         0         0         0         0
         0         0         0         0         0         0         0         0
         0         0         0         0         0         0         0         0
         0         0         0         0         0         0         0         0
         0         0         0         0         0         0         0         0
         0         0         0         0         0         0         0         0
         0         0         0         0         0         0         0         0
         0         0         0         0         0         0         0         0
         0         0         0         0         0         0         0         0
         0         0         0         0         0         0         0         0
         0         0         0         0         0         0         0         0
         0         0         0         0         0         0         0         0
         0         0         0         0         0         0         0         0
         0         0         0         0         0         0         0         0
         0         0         0         0         0         0         0         0
         0         0         0         0         0         0         0         0
         0         0         0         0         0         0         0         0
         0         0         0         0         0         0         0         0
         0         0         0         0         0         0         0         0
         0         0         0         0         0         0         0         0
         0         0         0         0         0         0         0         0
         0         0         0         0         0         0         0         0
         0         0         0         0         0         0         0         0
         0         0         0         0         0         0         0         0
         0         0         0         0         0         0         0         0
         0         0         0         0         0         0         0         0
         0         0         0         0         0         0         0         0
         0         0         0         0         0         0         0         0
         0         0         0         0         0         0         0         0
         0         0         0         0         0         0         0         0
         0         0         0         0         0         0         0         0
         0         0         0         0         0         0         0         0
         0         0         0         0         0         0         0         0
         0         0         0         0         0         0         0         0
         0         0         0         0         0         0         0         0
         0         0         0         0         0         0         0         0
         0         0         0         0         0         0         0         0
         0         0         0         0         0         0         0         0
         0         0         0         0         0         0         0         0
         0         0         0         0         0         0         0         0
         0         0         0         0         0         0         0         0
         0         0         0         0         0         0         0         0
         0         0         0         0         0         0         0         0
         0         0         0         0         0         0         0         0
         0         0         0         0         0         0         0         0
         0         0         0         0         0         0         0         0
         0         0         0         0         0         0         0         0
         0         0         0         0         0         0         0         0
         0         0         0         0         0         0         0         0
         0         0         0         0         0         0         0         0
         0         0         0         0         0         0         0         0
         0         0         0         0         0         0         0         0
         0         0         0         0         0         0         0         0
         0         0         0         0         0         0         0         0
         0         0         0         0         0         0         0         0
         0         0         0         0         0         0         0         0
         0         0         0         0         0         0         0         0
         0         0         0         0         0         0         0         0
         0         0         0         0         0         0         0         0
         0         0         0         0         0         0         0         0
         0         0         0         0         0         0         0         0
         0         0         0         0         0         0         0         0
         0         0         0         0         0         0         0         0
         0         0         0         0         0         0         0         0
         0         0         0         0         0         0         0         0
         0         0         0         0         0         0         0         0
         0         0         0         0         0         0         0         0
         0         0         0         0         0         0         0         0
         0         0         0         0         0         0         0         0
         0         0         0         0         0         0         0         0
         0         0         0         0         0         0         0         0
         0         0         0         0         0         0         0         0
         0         0         0         0         0         0         0         0
         0         0         0         0         0         0         0         0
         0         0         0         0         0         0         0         0
         0         0         0         0         0         0         0         0
         0         0         0         0         0         0         0         0
         0         0         0         0         0         0         0         0
         0         0         0         0         0         0         0         0
         0         0         0         0         0         0         0         0
         0         0         0         0         0         0         0         0
         0         0         0         0         0         0         0         0
         0         0         0         0         0         0         0         0
         0         0         0         0         0         0         0         0
         0         0         0         0         0         0         0         0
         0         0         0         0         0         0         0         0
         0         0         0         0         0         0         0         0
         0         0         0         0         0         0         0         0
         0         0         0         0         0         0         0         0
         0         0         0         0         0         0         0         0
         0         0         0         0         0         0         0         0
         0         0         0         0         0         0         0         0
         0         0         0         0         0         0         0         0
         0         0         0         0         0         0         0         0
         0         0         0         0         0         0         0         0
         0         0         0         0         0         0         0         0
         0         0         0         0         0         0         0         0
         0         0         0         0         0         0         0         0
         0         0         0         0         0         0         0         0
         0         0         0         0         0         0         0         0
         0         0         0         0         0         0         0         0
         0         0         0         0         0         0         0         0
         0         0         0         0         0         0         0         0
         0         0         0         0         0         0         0         0
         0         0         0         0         0         0         0         0
         0         0         0         0         0         0         0         0
         0         0         0         0         0         0         0         0
         0         0         0         0         0         0         0         0
         0         0         0         0         0         0         0         0
         0         0         0         0         0         0         0         0
         0         0         0         0         0         0         0         0
         0         0         0         0         0         0         0         0
         0         0         0         0         0         0         0         0
         0         0         0         0         0         0         0         0
         0         0         0         0         0         0         0         0
         0         0         0         0         0         0         0         0
         0         0         0         0         0         0         0         0
         0         0         0         0         0         0         0         0
         0         0         0         0         0         0         0         0
         0         0         0         0         0         0         0         0
         0         0         0         0         0         0         0         0
         0         0         0         0         0         0         0         0
         0         0         0         0         0         0         0         0
         0         0         0         0         0         0         0         0
         0         0         0         0         0         0         0         0
         0         0         0         0         0         0         0         0
         0         0         0         0         0         0         0         0
         0         0         0         0         0         0         0         0
         0         0         0         0         0         0         0         0
         0         0         0         0         0         0         0         0
         0         0         0         0         0         0         0         0
         0         0         0         0         0         0         0         0
         0         0         0         0         0         0         0         0
         0         0         0         0         0         0         0         0
         0         0         0         0         0         0         0         0
         0         0         0         0         0         0         0         0
         0         0         0         0         0         0         0         0
         0         0         0         0         0         0         0         0
         0         0         0         0         0         0         0         0
         0         0         0         0         0         0         0         0
         0         0         0         0         0         0         0         0
         0         0         0         0         0         0         0         0
         0         0         0         0         0         0         0         0
         0         0         0         0         0         0         0         0
         0         0         0         0         0         0         0         0
         0         0         0         0         0         0         0         0
         0         0         0         0         0         0         0         0
         0         0         0         0         0         0         0         0
         0         0         0         0         0         0         0         0
         0         0         0         0         0         0         0         0
         0         0         0         0         0         0         0         0
         0         0         0         0         0         0         0         0
         0         0         0         0         0         0         0         0
         0         0         0         0         0         0         0         0
         0         0         0         0         0         0         0         0
         0         0         0         0         0         0         0         0
         0         0         0         0         0         0         0         0
         0         0         0         0         0         0         0         0
         0         0         0         0         0         0         0         0
         0         0         0         0         0         0         0         0
         0         0         0         0         0         0         0         0
         0         0         0         0         0         0         0         0
         0         0         0         0         0         0         0         0
         0         0         0         0         0         0         0         0
         0         0         0         0         0         0         0         0
         0         0         0         0         0         0         0         0
         0         0         0         0         0         0         0         0
         0         0         0         0         0         0         0         0
         0         0         0         0         0         0         0         0
         0         0         0         0         0         0         0         0
         0         0         0         0         0         0         0         0
         0         0         0         0         0         0         0         0
         0         0         0         0         0         0         0         0
         0         0         0         0         0         0         0         0
         0         0         0         0         0         0         0         0
         0         0         0         0         0         0         0         0
         0         0         0         0         0         0         0         0
         0         0         0         0         0         0         0         0
         0         0         0         0         0         0         0         0
         0         0         0         0         0         0         0         0
         0         0         0         0         0         0         0         0
         0         0         0         0         0         0         0         0
         0         0         0         0         0         0         0         0
         0         0         0         0         0         0         0         0
         0         0         0         0         0         0         0         0
         0         0         0         0         0         0         0         0
         0         0         0         0         0         0         0         0
         0         0         0         0         0         0         0         0
         0         0         0         0         0         0         0         0
         0         0         0         0         0         0         0         0
         0         0         0         0         0         0         0         0
         0         0         0         0         0         0         0         0
         0         0         0         0         0         0         0         0
         0         0         0         0         0         0         0         0
         0         0         0         0         0         0         0         0
         0         0         0         0         0         0         0         0
         0         0         0         0         0         0         0         0
         0         0         0         0         0         0         0         0
         0         0         0         0         0         0         0         0
         0         0         0         0         0         0         0         0
         0         0         0         0         0         0         0         0
         0         0         0         0         0         0         0         0
         0         0         0         0         0         0         0         0
         0         0         0         0         0         0         0         0
         0         0         0         0         0         0         0         0
         0         0         0         0         0         0         0         0
         0         0         0         0         0         0         0         0
         0         0         0         0         0         0         0         0
         0         0         0         0         0         0         0         0
         0         0         0         0         0         0         0         0
         0         0         0         0         0         0         0         0
         0         0         0         0         0         0         0         0
         0         0         0         0         0         0         0         0
         0         0         0         0         0         0         0         0
         0         0         0         0         0         0         0         0
         0         0         0         0         0         0         0         0
         0         0         0         0         0         0         0         0
         0         0         0         0         0         0         0         0
         0         0         0         0         0         0         0         0
         0         0         0         0         0         0         0         0
         0         0         0         0         0         0         0         0
         0         0         0         0         0         0         0         0
         0         0         0         0         0         0         0         0
         0         0         0         0         0         0         0         0
         0         0         0         0         0         0         0         0
         0         0         0         0         0         0         0         0
         0         0         0         0         0         0         0         0
         0         0         0         0         0         0         0         0
         0         0         0         0         0         0         0         0
         0         0         0         0         0         0         0         0
         0         0         0         0         0         0         0         0
         0         0         0         0         0         0         0         0
         0         0         0         0         0         0         0         0
         0         0         0         0         0         0         0         0
         0         0         0         0         0         0         0         0
         0         0         0         0         0         0         0         0
         0         0         0         0         0         0         0         0
         0         0         0         0         0         0         0         0
         0         0         0         0         0         0         0         0
         0         0         0         0         0         0         0         0
         0         0         0         0         0         0         0         0
         0         0         0         0         0         0         0         0
         0         0         0         0         0         0         0         0
         0         0         0         0         0         0         0         0
         0         0         0         0         0         0         0         0
         0         0         0         0         0         0         0         0
         0         0         0         0         0         0         0         0
         0         0         0         0         0         0         0         0
         0         0         0         0         0         0         0         0
         0         0         0         0         0         0         0         0
         0         0         0         0         0         0         0         0
         0         0         0         0         0         0         0         0
         0         0         0         0         0         0         0         0
         0         0         0         0         0         0         0         0
         0         0         0         0         0         0         0         0
         0         0         0         0         0         0         0         0
         0         0         0         0         0         0         0         0
         0         0         0         0         0         0         0         0
         0         0         0         0         0         0         0         0
         0         0         0         0         0         0         0         0
         0         0         0         0         0         0         0         0
         0         0         0         0         0         0         0         0
         0         0         0         0         0         0         0         0
         0         0         0         0         0         0         0         0
         0         0         0         0         0         0         0         0
         0         0         0         0         0         0         0         0
         0         0         0         0         0         0         0         0
         0         0         0         0         0         0         0         0
         0         0         0         0         0         0         0         0
         0         0         0         0         0         0         0         0
         0         0         0         0         0         0         0         0
         0         0         0         0         0         0         0         0
         0         0         0         0         0         0         0         0
         0         0         0         0         0         0         0         0
         0         0         0         0         0         0         0         0
         0         0         0         0         0         0         0         0
         0         0         0         0         0         0         0         0
         0         0         0         0         0         0         0         0
         0         0         0         0         0         0         0         0
         0         0         0         0         0         0         0         0
         0         0         0         0         0         0         0         0
         0         0         0         0         0         0         0         0
         0         0         0         0         0         0         0         0
         0         0         0         0         0         0         0         0
         0         0         0         0         0         0         0         0
         0         0         0         0         0         0         0         0
         0         0         0         0         0         0         0         0
         0         0         0         0         0         0         0         0
         0         0         0         0         0         0         0         0
         0         0         0         0         0         0         0         0
         0         0         0         0         0         0         0         0
         0         0         0         0         0         0         0         0
         0         0         0         0         0         0         0         0
         0         0         0         0         0         0         0         0
         0         0         0         0         0         0         0         0
         0         0         0         0         0         0         0         0
         0         0         0         0         0         0         0         0
         0         0         0         0         0         0         0         0
         0         0         0         0         0         0         0         0
         0         0         0         0         0         0         0         0
         0         0         0         0         0         0         0         0
         0         0         0         0         0         0         0         0
         0         0         0         0         0         0         0         0
         0         0         0         0         0         0         0         0
         0         0         0         0         0         0         0         0
         0         0         0         0         0         0         0         0
         0         0         0         0         0         0         0         0
         0         0         0         0         0         0         0         0
         0         0         0         0         0         0         0         0
         0         0         0         0         0         0         0         0
         0         0         0         0         0         0         0         0
         0         0         0         0         0         0         0         0
         0         0         0         0         0         0         0         0
         0         0         0         0         0         0         0         0
         0         0         0         0         0         0         0         0
         0         0         0         0         0         0         0         0
         0         0         0         0         0         0         0         0
         0         0         0         0         0         0         0         0
         0         0         0         0         0         0         0         0
         0         0         0         0         0         0         0         0
         0         0         0         0         0         0         0         0
         0         0         0         0         0         0         0         0
         0         0         0         0         0         0         0         0
         0         0         0         0         0         0         0         0
         0         0         0         0         0         0         0         0
         0         0         0         0         0         0         0         0
         0         0         0         0         0         0         0         0
         0         0         0         0         0         0         0         0
         0         0         0         0         0         0         0         0
         0         0         0         0         0         0         0         0
         0         0         0         0         0         0         0         0
         0         0         0         0         0         0         0         0
         0         0         0         0         0         0         0         0
         0         0         0         0         0         0         0         0
         0         0         0         0         0         0         0         0
         0         0         0         0         0         0         0         0
         0         0         0         0         0         0         0         0
         0         0         0         0         0         0         0         0
         0         0         0         0         0         0         0         0
         0         0         0         0         0         0         0         0
         0         0         0         0         0         0         0         0
         0         0         0         0         0         0         0         0
         0         0         0         0         0         0         0         0
         0         0         0         0         0         0         0         0
         0         0         0         0         0         0         0         0
         0         0         0         0         0         0         0         0
         0         0         0         0         0         0         0         0
         0         0         0         0         0         0         0         0
         0         0         0         0         0         0         0         0
         0         0         0         0         0         0         0         0
         0         0         0         0         0         0         0         0
         0         0         0         0         0         0         0         0
         0         0         0         0         0         0         0         0
         0         0         0         0         0         0         0         0
         0         0         0         0         0         0         0         0
         0         0         0         0         0         0         0         0
         0         0         0         0         0         0         0         0
         0         0         0         0         0         0         0         0
         0         0         0         0         0         0         0         0
         0         0         0         0         0         0         0         0
         0         0         0         0         0         0         0         0
         0         0         0         0         0         0         0         0
         0         0         0         0         0         0         0         0
         0         0         0         0         0         0         0         0
         0         0         0         0         0         0         0         0
         0         0         0         0         0         0         0         0
         0         0         0         0         0         0         0         0
         0         0         0         0         0         0         0         0
         0         0         0         0         0         0         0         0
         0         0         0         0         0         0         0         0
         0         0         0         0         0         0         0         0
         0         0         0         0         0         0         0         0
         0         0         0         0         0         0         0         0
         0         0         0         0         0         0         0         0
         0         0         0         0         0         0         0         0
         0         0         0         0         0         0         0         0
         0         0         0         0         0         0         0         0
         0         0         0         0         0         0         0         0
         0         0         0         0         0         0         0         0
         0         0         0         0         0         0         0         0
         0         0         0         0         0         0         0         0
         0         0         0         0         0         0         0         0
         0         0         0         0         0         0         0         0
         0         0         0         0         0         0         0         0
         0         0         0         0         0         0         0         0
         0         0         0         0         0         0         0         0
         0         0         0         0         0         0         0         0
         0         0         0         0         0         0         0         0
         0         0         0         0         0         0         0         0
         0         0         0         0         0         0         0         0
         0         0         0         0         0         0         0         0
         0         0         0         0         0         0         0         0
         0         0         0         0         0         0         0         0
         0         0         0         0         0         0         0         0
         0         0         0         0         0         0         0         0
         0         0         0         0         0         0         0         0
         0         0         0         0         0         0         0         0
         0         0         0         0         0         0         0         0
         0         0         0         0         0         0         0         0
         0         0         0         0         0         0         0         0
         0         0         0         0         0         0         0         0
         0         0         0         0         0         0         0         0
         0         0         0         0         0         0         0         0
         0         0         0         0         0         0         0         0
         0         0         0         0         0         0         0         0
         0         0         0         0         0         0         0         0
         0         0         0         0         0         0         0         0
         0         0         0         0         0         0         0         0
         0         0         0         0         0         0         0         0
         0         0         0         0         0         0         0         0
         0         0         0         0         0         0         0         0
         0         0         0         0         0         0         0         0
         0         0         0         0         0         0         0         0
         0         0         0         0         0         0         0         0
         0         0         0         0         0         0         0         0
         0         0         0         0         0         0         0         0
         0         0         0         0         0         0         0         0
         0         0         0         0         0         0         0         0
         0         0         0         0         0         0         0         0
         0         0         0         0         0         0         0         0
         0         0         0         0         0         0         0         0
         0         0         0         0         0         0         0         0
         0         0         0         0         0         0         0         0
         0         0         0         0         0         0         0         0
         0         0         0         0         0         0         0         0
         0         0         0         0         0         0         0         0
         0         0         0         0         0         0         0         0
         0         0         0         0         0         0         0         0
         0         0         0         0         0         0         0         0
         0         0         0         0         0         0         0         0
         0         0         0         0         0         0         0         0
         0         0         0         0         0         0         0         0
         0         0         0         0         0         0         0         0
         0         0         0         0         0         0         0         0
         0         0         0         0         0         0         0         0
         0         0         0         0         0         0         0         0
         0         0         0         0         0         0         0         0
         0         0         0         0         0         0         0         0
         0         0         0         0         0         0         0         0
         0         0         0         0         0         0         0         0
         0         0         0         0         0         0         0         0
         0         0         0         0         0         0         0         0
         0         0         0         0         0         0         0         0
         0         0         0         0         0         0         0         0
         0         0         0         0         0         0         0         0
         0         0         0         0         0         0         0         0
         0         0         0         0         0         0         0         0
         0         0         0         0         0         0         0         0
         0         0         0         0         0         0         0         0
         0         0         0         0         0         0         0         0
         0         0         0         0         0         0         0         0
         0         0         0         0         0         0         0         0
         0         0         0         0         0         0         0         0
         0         0         0         0         0         0         0         0
         0         0         0         0         0         0         0         0
         0         0         0         0         0         0         0         0
         0         0         0         0         0         0         0         0
         0         0         0         0         0         0         0         0
         0         0         0         0         0         0         0         0
         0         0         0         0         0         0         0         0
         0         0         0         0         0         0         0         0
         0         0         0         0         0         0         0         0
         0         0         0         0         0         0         0         0
         0         0         0         0         0         0         0         0
         0         0         0         0         0         0         0         0
         0         0         0         0         0         0         0         0
         0         0         0         0         0         0         0         0
         0         0         0         0         0         0         0         0
         0         0         0         0         0         0         0         0
         0         0         0         0         0         0         0         0
         0         0         0         0         0         0         0         0
         0         0         0         0         0         0         0         0
         0         0         0         0         0         0         0         0
         0         0         0         0         0         0         0         0
         0         0         0         0         0         0         0         0
         0         0         0         0         0         0         0         0
         0         0         0         0         0         0         0         0
         0         0         0         0         0         0         0         0
         0         0         0         0         0         0         0         0
         0         0         0         0         0         0         0         0
         0         0         0         0         0         0         0         0
         0         0         0         0         0         0         0         0
         0         0         0         0         0         0         0         0
         0         0         0         0         0         0         0         0
         0         0         0         0         0         0         0         0
         0         0         0         0         0         0         0         0
         0         0         0         0         0         0         0         0
         0         0         0         0         0         0         0         0
         0         0         0         0         0         0         0         0
         0         0         0         0         0         0         0         0
         0         0         0         0         0         0         0         0
         0         0         0         0         0         0         0         0
         0         0         0         0         0         0         0         0
         0         0         0         0         0         0         0         0
         0         0         0         0         0         0         0         0
         0         0         0         0         0         0         0         0
         0         0         0         0         0         0         0         0
         0         0         0         0         0         0         0         0
         0         0         0         0         0         0         0         0
         0         0         0         0         0         0         0         0
         0         0         0         0         0         0         0         0
         0         0         0         0         0         0         0         0
         0         0         0         0         0         0         0         0
         0         0         0         0         0         0         0         0
         0         0         0         0         0         0         0         0
         0         0         0         0         0         0         0         0
         0         0         0         0         0         0         0         0
         0         0         0         0         0         0         0         0
         0         0         0         0         0         0         0         0
         0         0         0         0         0         0         0         0
         0         0         0         0         0         0         0         0
         0         0         0         0         0         0         0         0
         0         0         0         0         0         0         0         0
         0         0         0         0         0         0         0         0
         0         0         0         0         0         0         0         0
         0         0         0         0         0         0         0         0
         0         0         0         0         0         0         0         0
         0         0         0         0         0         0         0         0
         0         0         0         0         0         0         0         0
         0         0         0         0         0         0         0         0
         0         0         0         0         0         0         0         0
         0         0         0         0         0         0         0         0
         0         0         0         0         0         0         0         0
         0         0         0         0         0         0         0         0
         0         0         0         0         0         0         0         0
         0         0         0         0         0         0         0         0
         0         0         0         0         0         0         0         0
         0         0         0         0         0         0         0         0
         0         0         0         0         0         0         0         0
         0         0         0         0         0         0         0         0
         0         0         0         0         0         0         0         0
         0         0         0         0         0         0         0         0
         0         0         0         0         0         0         0         0
         0         0         0         0         0         0         0         0
         0         0         0         0         0         0         0         0
         0         0         0         0         0         0         0         0
         0         0         0         0         0         0         0         0
         0         0         0         0         0         0         0         0
         0         0         0         0         0         0         0         0
         0         0         0         0         0         0         0         0
         0         0         0         0         0         0         0         0
         0         0         0         0         0         0         0         0
         0         0         0         0         0         0         0         0
         0         0         0         0         0         0         0         0
         0         0         0         0         0         0         0         0
         0         0         0         0         0         0         0         0
         0         0         0         0         0         0         0         0
         0         0         0         0         0         0         0         0
         0         0         0         0         0         0         0         0
         0         0         0         0         0         0         0         0
         0         0         0         0         0         0         0         0
         0         0         0         0         0         0         0         0
         0         0         0         0         0         0         0         0
         0         0         0         0         0         0         0         0
         0         0         0         0         0         0         0         0
         0         0         0         0         0         0         0         0
         0         0         0         0         0         0         0         0
         0         0         0         0         0         0         0         0
         0         0         0         0         0         0         0         0
         0         0         0         0         0         0         0         0
         0         0         0         0         0         0         0         0
         0         0         0         0         0         0         0         0
         0         0         0         0         0         0         0         0
         0         0         0         0         0         0         0         0
         0         0         0         0         0         0         0         0
         0         0         0         0         0         0         0         0
         0         0         0         0         0         0         0         0
         0         0         0         0         0         0         0         0
         0         0         0         0         0         0         0         0
         0         0         0         0         0         0         0         0
         0         0         0         0         0         0         0         0
         0         0         0         0         0         0         0         0
         0         0         0         0         0         0         0         0
         0         0         0         0         0         0         0         0
         0         0         0         0         0         0         0         0
         0         0         0         0         0         0         0         0
         0         0         0         0         0         0         0         0
         0         0         0         0         0         0         0         0
         0         0         0         0         0         0         0         0
         0         0         0         0         0         0         0         0
         0         0         0         0         0         0         0         0
         0         0         0         0         0         0         0         0
         0         0         0         0         0         0         0         0
         0         0         0         0         0         0         0         0
         0         0         0         0         0         0         0         0
         0         0         0         0         0         0         0         0
         0         0         0         0         0         0         0         0
         0         0         0         0         0         0         0         0
         0         0         0         0         0         0         0         0
         0         0         0         0         0         0         0         0
         0         0         0         0         0         0         0         0
         0         0         0         0         0         0         0         0
         0         0         0         0         0         0         0         0
         0         0         0         0         0         0         0         0
         0         0         0         0         0         0         0         0
         0         0         0         0         0         0         0         0
         0         0         0         0         0         0         0         0
         0         0         0         0         0         0         0         0
         0         0         0         0         0         0         0         0
         0         0         0         0         0         0         0         0
         0         0         0         0         0         0         0         0
         0         0         0         0         0         0         0         0
         0         0         0         0         0         0         0         0
         0         0         0         0         0         0         0         0
         0         0         0         0         0         0         0         0
         0         0         0         0         0         0         0         0
         0         0         0         0         0         0         0         0
         0         0         0         0         0         0         0         0
         0         0         0         0         0         0         0         0
         0         0         0         0         0         0         0         0
         0         0         0         0         0         0         0         0
         0         0         0         0         0         0         0         0
         0         0         0         0         0         0         0         0
         0         0         0         0         0         0         0         0
         0         0         0         0         0         0         0         0
         0         0         0         0         0         0         0         0
         0         0         0         0         0         0         0         0
         0         0         0         0         0         0         0         0
         0         0         0         0         0         0         0         0
         0         0         0         0         0         0         0         0
         0         0         0         0         0         0         0         0
         0         0         0         0         0         0         0         0
         0         0         0         0         0         0         0         0
         0         0         0         0         0         0         0         0
         0         0         0         0         0         0         0         0
         0         0         0         0         0         0         0         0
         0         0         0         0         0         0         0         0
         0         0         0         0         0         0         0         0
         0         0         0         0         0         0         0         0
         0         0         0         0         0         0         0         0
         0         0         0         0         0         0         0         0
         0         0         0         0         0         0         0         0
         0         0         0         0         0         0         0         0
         0         0         0         0         0         0         0         0
         0         0         0         0         0         0         0         0
         0         0         0         0         0         0         0         0
         0         0         0         0         0         0         0         0
         0         0         0         0         0         0         0         0
         0         0         0         0         0         0         0         0
         0         0         0         0         0         0         0         0
         0         0         0         0         0         0         0         0
         0         0         0         0         0         0         0         0
         0         0         0         0         0         0         0         0
         0         0         0         0         0         0         0         0
         0         0         0         0         0         0         0         0
         0         0         0         0         0         0         0         0
         0         0         0         0         0         0         0         0
         0         0         0         0         0         0         0         0
         0         0         0         0         0         0         0         0
         0         0         0         0         0         0         0         0
         0         0         0         0         0         0         0         0
         0         0         0         0         0         0         0         0
         0         0         0         0         0         0         0         0
         0         0         0         0         0         0         0         0
         0         0         0         0         0         0         0         0
         0         0         0         0         0         0         0         0
         0         0         0         0         0         0         0         0
         0         0         0         0         0         0         0         0
         0         0         0         0         0         0         0         0
         0         0         0         0         0         0         0         0
         0         0         0         0         0         0         0         0
         0         0         0         0         0         0         0         0
         0         0         0         0         0         0         0         0
         0         0         0         0         0         0         0         0
         0         0         0         0         0         0         0         0
         0         0         0         0         0         0         0         0
         0         0         0         0         0         0         0         0
         0         0         0         0         0         0         0         0
         0         0         0         0         0         0         0         0
         0         0         0         0         0         0         0         0
         0         0         0         0         0         0         0         0
         0         0         0         0         0         0         0         0
         0         0         0         0         0         0         0         0
         0         0         0         0         0         0         0         0
         0         0         0         0         0         0         0         0
         0         0         0         0         0         0         0         0
         0         0         0         0         0         0         0         0
         0         0         0         0         0         0         0         0
         0         0         0         0         0         0         0         0
         0         0         0         0         0         0         0         0
         0         0         0         0         0         0         0         0
         0         0         0         0         0         0         0         0
         0         0         0         0         0         0         0         0
         0         0         0         0         0         0         0         0
         0         0         0         0         0         0         0         0
         0         0         0         0         0         0         0         0
         0         0         0         0         0         0         0         0
         0         0         0         0         0         0         0         0
         0         0         0         0         0         0         0         0
         0         0         0         0         0         0         0         0
         0         0         0         0         0         0         0         0
         0         0         0         0         0         0         0         0
         0         0         0         0         0         0         0         0
         0         0         0         0         0         0         0         0
         0         0         0         0         0         0         0         0
         0         0         0         0         0         0         0         0
         0         0         0         0         0         0         0         0
         0         0         0         0         0         0         0         0
         0         0         0         0         0         0         0         0
         0         0         0         0         0         0         0         0
         0         0         0         0         0         0         0         0
         0         0         0         0         0         0         0         0
         0         0         0         0         0         0         0         0
         0         0         0         0         0         0         0         0
         0         0         0         0         0         0         0         0
         0         0         0         0         0         0         0         0
         0         0         0         0         0         0         0         0
         0         0         0         0         0         0         0         0
         0         0         0         0         0         0         0         0
         0         0         0         0         0         0         0         0
         0         0         0         0         0         0         0         0
         0         0         0         0         0         0         0         0
         0         0         0         0         0         0         0         0
         0         0         0         0         0         0         0         0
         0         0         0         0         0         0         0         0
         0         0         0         0         0         0         0         0
         0         0         0         0         0         0         0         0
         0         0         0         0         0         0         0         0
         0         0         0         0         0         0         0         0
         0         0         0         0         0         0         0         0
         0         0         0         0         0         0         0         0
         0         0         0         0         0         0         0         0
         0         0         0         0         0         0         0         0
         0         0         0         0         0         0         0         0
         0         0         0         0         0         0         0         0
         0         0         0         0         0         0         0         0
         0         0         0         0         0         0         0         0
         0         0         0         0         0         0         0         0
         0         0         0         0         0         0         0         0
         0         0         0         0         0         0         0         0
         0         0         0         0         0         0         0         0
         0         0         0         0         0         0         0         0
         0         0         0         0         0         0         0         0
         0         0         0         0         0         0         0         0
         0         0         0         0         0         0         0         0
         0         0         0         0         0         0         0         0
         0         0         0         0         0         0         0         0
         0         0         0         0         0         0         0         0
         0         0         0         0         0         0         0         0
         0         0         0         0         0         0         0         0
         0         0         0         0         0         0         0         0
         0         0         0         0         0         0         0         0
         0         0         0         0         0         0         0         0
         0         0         0         0         0         0         0         0
         0         0         0         0         0         0         0         0
         0         0         0         0         0         0         0         0
         0         0         0         0         0         0         0         0
         0         0         0         0         0         0         0         0
         0         0         0         0         0         0         0         0
         0         0         0         0         0         0         0         0
         0         0         0         0         0         0         0         0
         0         0         0         0         0         0         0         0
         0         0         0         0         0         0         0         0
         0         0         0         0         0         0         0         0
         0         0         0         0         0         0         0         0
         0         0         0         0         0         0         0         0
         0         0         0         0         0         0         0         0
         0         0         0         0         0         0         0         0
         0         0         0         0         0         0         0         0
         0         0         0         0         0         0         0         0
         0         0         0         0         0         0         0         0
         0         0         0         0         0         0         0         0
         0         0         0         0         0         0         0         0
         0         0         0         0         0         0         0         0
         0         0         0         0         0         0         0         0
         0         0         0         0         0         0         0         0
         0         0         0         0         0         0         0         0
         0         0         0         0         0         0         0         0
         0         0         0         0         0         0         0         0
         0         0         0         0         0         0         0         0
         0         0         0         0         0         0         0         0
         0         0         0         0         0         0         0         0
         0         0         0         0         0         0         0         0
         0         0         0         0         0         0         0         0
         0         0         0         0         0         0         0         0
         0         0         0         0         0         0         0         0
         0         0         0         0         0         0         0         0
         0         0         0         0         0         0         0         0
         0         0         0         0         0         0         0         0
         0         0         0         0         0         0         0         0
         0         0         0         0         0         0         0         0
         0         0         0         0         0         0         0         0
         0         0         0         0         0         0         0         0
         0         0         0         0         0         0         0         0
         0         0         0         0         0         0         0         0
         0         0         0         0         0         0         0         0
         0         0         0         0         0         0         0         0
         0         0         0         0         0         0         0         0
         0         0         0         0         0         0         0         0
         0         0         0         0         0         0         0         0
         0         0         0         0         0         0         0         0
         0         0         0         0         0         0         0         0
         0         0         0         0         0         0         0         0
         0         0         0         0         0         0         0         0
         0         0         0         0         0         0         0         0
         0         0         0         0         0         0         0         0
         0         0         0         0         0         0         0         0
         0         0         0         0         0         0         0         0
         0         0         0         0         0         0         0         0
         0         0         0         0         0         0         0         0
         0         0         0         0         0         0         0         0
         0         0         0         0         0         0         0         0
         0         0         0         0         0         0         0         0
         0         0         0         0         0         0         0         0
         0         0         0         0         0         0         0         0
         0         0         0         0         0         0         0         0
         0         0         0         0         0         0         0         0
         0         0         0         0         0         0         0         0
         0         0         0         0         0         0         0         0
         0         0         0         0         0         0         0         0
         0         0         0         0         0         0         0         0
         0         0         0         0         0         0         0         0
         0         0         0         0         0         0         0         0
         0         0         0         0         0         0         0         0
         0         0         0         0         0         0         0         0
         0         0         0         0         0         0         0         0
         0         0         0         0         0         0         0         0
         0         0         0         0         0         0         0         0
         0         0         0         0         0         0         0         0
         0         0         0         0         0         0         0         0
         0         0         0         0         0         0         0         0
         0         0         0         0         0         0         0         0
         0         0         0         0         0         0         0         0
         0         0         0         0         0         0         0         0
         0         0         0         0         0         0         0         0
         0         0         0         0         0         0         0         0
         0         0         0         0         0         0         0         0
         0         0         0         0         0         0         0         0
         0         0         0         0         0         0         0         0
         0         0         0         0         0         0         0         0
         0         0         0         0         0         0         0         0
         0         0         0         0         0         0         0         0
         0         0         0         0         0         0         0         0
         0         0         0         0         0         0         0         0
         0         0         0         0         0         0         0         0
         0         0         0         0         0         0         0         0
         0         0         0         0         0         0         0         0
         0         0         0         0         0         0         0         0
         0         0         0         0         0         0         0         0
         0         0         0         0         0         0         0         0
         0         0         0         0         0         0         0         0
         0         0         0         0         0         0         0         0
         0         0         0         0         0         0         0         0
         0         0         0         0         0         0         0         0
         0         0         0         0         0         0         0         0
         0         0         0         0         0         0         0         0
         0         0         0         0         0         0         0         0
         0         0         0         0         0         0         0         0
         0         0         0         0         0         0         0         0
         0         0         0         0         0         0         0         0
         0         0         0         0         0         0         0         0
         0         0         0         0         0         0         0         0
         0         0         0         0         0         0         0         0
         0         0         0         0         0         0         0         0
         0         0         0         0         0         0         0         0
         0         0         0         0         0         0         0         0
         0         0         0         0         0         0         0         0
         0         0         0         0         0         0         0         0
         0         0         0         0         0         0         0         0
         0         0         0         0         0         0         0         0
         0         0         0         0         0         0         0         0
         0         0         0         0         0         0         0         0
         0         0         0         0         0         0         0         0
         0         0         0         0         0         0         0         0
         0         0         0         0         0         0         0         0
         0         0         0         0         0         0         0         0
         0         0         0         0         0         0         0         0
         0         0         0         0         0         0         0         0
         0         0         0         0         0         0         0         0
         0         0         0         0         0         0         0         0
         0         0         0         0         0         0         0         0
         0         0         0         0         0         0         0         0
         0         0         0         0         0         0         0         0
         0         0         0         0         0         0         0         0
         0         0         0         0         0         0         0         0
         0         0         0         0         0         0         0         0
         0         0         0         0         0         0         0         0
         0         0         0         0         0         0         0         0
         0         0         0         0         0         0         0         0
         0         0         0         0         0         0         0         0
         0         0         0         0         0         0         0         0
         0         0         0         0         0         0         0         0
         0         0         0         0         0         0         0         0
         0         0         0         0         0         0         0         0
         0         0         0         0         0         0         0         0
         0         0         0         0         0         0         0         0
         0         0         0         0         0         0         0         0
         0         0         0         0         0         0         0         0
         0         0         0         0         0         0         0         0
         0         0         0         0         0         0         0         0
         0         0         0         0         0         0         0         0
         0         0         0         0         0         0         0         0
         0         0         0         0         0         0         0         0
         0         0         0         0         0         0         0         0
         0         0         0         0         0         0         0         0
         0         0         0         0         0         0         0         0
         0         0         0         0         0         0         0         0
         0         0         0         0         0         0         0         0
         0         0         0         0         0         0         0         0
         0         0         0         0         0         0         0         0
         0         0         0         0         0         0         0         0
         0         0         0         0         0         0         0         0
         0         0         0         0         0         0         0         0
         0         0         0         0         0         0         0         0
         0         0         0         0         0         0         0         0
         0         0         0         0         0         0         0         0
         0         0         0         0         0         0         0         0
         0         0         0         0         0         0         0         0
         0         0         0         0         0         0         0         0
         0         0         0         0         0         0         0         0
         0         0         0         0         0         0         0         0
         0         0         0         0         0         0         0         0
         0         0         0         0         0         0         0         0
         0         0         0         0         0         0         0         0
         0         0         0         0         0         0         0         0
         0         0         0         0         0         0         0         0
         0         0         0         0         0         0         0         0
         0         0         0         0         0         0         0         0
         0         0         0         0         0         0         0         0
         0         0         0         0         0         0         0         0
         0         0         0         0         0         0         0         0
         0         0         0         0         0         0         0         0
         0         0         0         0         0         0         0         0
         0         0         0         0         0         0         0         0
         0         0         0         0         0         0         0         0
         0         0         0         0         0         0         0         0
         0         0         0         0         0         0         0         0
         0         0         0         0         0         0         0         0
         0         0         0         0         0         0         0         0
         0         0         0         0         0         0         0         0
         0         0         0         0         0         0         0         0
         0         0         0         0         0         0         0         0
         0         0         0         0         0         0         0         0
         0         0         0         0         0         0         0         0
         0         0         0         0         0         0         0         0
         0         0         0         0         0         0         0         0
         0         0         0         0         0         0         0         0
         0         0         0         0         0         0         0         0
         0         0         0         0         0         0         0         0
         0         0         0         0         0         0         0         0
         0         0         0         0         0         0         0         0
         0         0         0         0         0         0         0         0
         0         0         0         0         0         0         0         0
         0         0         0         0         0         0         0         0
         0         0         0         0         0         0         0         0
         0         0         0         0         0         0         0         0
         0         0         0         0         0         0         0         0
         0         0         0         0         0         0         0         0
         0         0         0         0         0         0         0         0
         0         0         0         0         0         0         0         0
         0         0         0         0         0         0         0         0
         0         0         0         0         0         0         0         0
         0         0         0         0         0         0         0         0
         0         0         0         0         0         0         0         0
         0         0         0         0         0         0         0         0
         0         0         0         0         0         0         0         0
         0         0         0         0         0         0         0         0
         0         0         0         0         0         0         0         0
         0         0         0         0         0         0         0         0
         0         0         0         0         0         0         0         0
         0         0         0         0         0         0         0         0
         0         0         0         0         0         0         0         0
         0         0         0         0         0         0         0         0
         0         0         0         0         0         0         0         0
         0         0         0         0         0         0         0         0
         0         0         0         0         0         0         0         0
         0         0         0         0         0         0         0         0
         0         0         0         0         0         0         0         0
         0         0         0         0         0         0         0         0
         0         0         0         0         0         0         0         0
         0         0         0         0         0         0         0         0
         0         0         0         0         0         0         0         0
         0         0         0         0         0         0         0         0
         0         0         0         0         0         0         0         0
         0         0         0         0         0         0         0         0
         0         0         0         0         0         0         0         0
         0         0         0         0         0         0         0         0
         0         0         0         0         0         0         0         0
         0         0         0         0         0         0         0         0
         0         0         0         0         0         0         0         0
         0         0         0         0         0         0         0         0
         0         0         0         0         0         0         0         0
         0         0         0         0         0         0         0         0
         0         0         0         0         0         0         0         0
         0         0         0         0         0         0         0         0
         0         0         0         0         0         0         0         0
         0         0         0         0         0         0         0         0
         0         0         0         0         0         0         0         0
         0         0         0         0         0         0         0         0
         0         0         0         0         0         0         0         0
         0         0         0         0         0         0         0         0
         0         0         0         0         0         0         0         0
         0         0         0         0         0         0         0         0
         0         0         0         0         0         0         0         0
         0         0         0         0         0         0         0         0
         0         0         0         0         0         0         0         0
         0         0         0         0         0         0         0         0
         0         0         0         0         0         0         0         0
         0         0         0         0         0         0         0         0
         0         0         0         0         0         0         0         0
         0         0         0         0         0         0         0         0
         0         0         0         0         0         0         0         0
         0         0         0         0         0         0         0         0
         0         0         0         0         0         0         0         0
         0         0         0         0         0         0         0         0
         0         0         0         0         0         0         0         0
         0         0         0         0         0         0         0         0
         0         0         0         0         0         0         0         0
         0         0         0         0         0         0         0         0
         0         0         0         0         0         0         0         0
         0         0         0         0         0         0         0         0
         0         0         0         0         0         0         0         0
         0         0         0         0         0         0         0         0
         0         0         0         0         0         0         0         0
         0         0         0         0         0         0         0         0
         0         0         0         0         0         0         0         0
         0         0         0         0         0         0         0         0
         0         0         0         0         0         0         0         0
         0         0         0         0         0         0         0         0
         0         0         0         0         0         0         0         0
         0         0         0         0         0         0         0         0
         0         0         0         0         0         0         0         0
         0         0         0         0         0         0         0         0
         0         0         0         0         0         0         0         0
         0         0         0         0         0         0         0         0
         0         0         0         0         0         0         0         0
         0         0         0         0         0         0         0         0
         0         0         0         0         0         0         0         0
         0         0         0         0         0         0         0         0
         0         0         0         0         0         0         0         0
         0         0         0         0         0         0         0         0
         0         0         0         0         0         0         0         0
         0         0         0         0         0         0         0         0
         0         0         0         0         0         0         0         0
         0         0         0         0         0         0         0         0
         0         0         0         0         0         0         0         0
         0         0         0         0         0         0         0         0
         0         0         0         0         0         0         0         0
         0         0         0         0         0         0         0         0
         0         0         0         0         0         0         0         0
         0         0         0         0         0         0         0         0
         0         0         0         0         0         0         0         0
         0         0         0         0         0         0         0         0
         0         0         0         0         0         0         0         0
         0         0         0         0         0         0         0         0
         0         0         0         0         0         0         0         0
         0         0         0         0         0         0         0         0
         0         0         0         0         0         0         0         0
         0         0         0         0         0         0         0         0
         0         0         0         0         0         0         0         0
         0         0         0         0         0         0         0         0
         0         0         0         0         0         0         0         0
         0         0         0         0         0         0         0         0
         0         0         0         0         0         0         0         0
         0         0         0         0         0         0         0         0
         0         0         0         0         0         0         0         0
         0         0         0         0         0         0         0         0
         0         0         0         0         0         0         0         0
         0         0         0         0         0         0         0         0
         0         0         0         0         0         0         0         0
         0         0         0         0         0         0         0         0
         0         0         0         0         0         0         0         0
         0         0         0         0         0         0         0         0
         0         0         0         0         0         0         0         0
         0         0         0         0         0         0         0         0
         0         0         0         0         0         0         0         0
         0         0         0         0         0         0         0         0
         0         0         0         0         0         0         0         0
         0         0         0         0         0         0         0         0
         0         0         0         0         0         0         0         0
         0         0         0         0         0         0         0         0
         0         0         0         0         0         0         0         0
         0         0         0         0         0         0         0         0
         0         0         0         0         0         0         0         0
         0         0         0         0         0         0         0         0
         0         0         0         0         0         0         0         0
         0         0         0         0         0         0         0         0
         0         0         0         0         0         0         0         0
         0         0         0         0         0         0         0         0
         0         0         0         0         0         0         0         0
         0         0         0         0         0         0         0         0
         0         0         0         0         0         0         0         0
         0         0         0         0         0         0         0         0
         0         0         0         0         0         0         0         0
         0         0         0         0         0         0         0         0
         0         0         0         0         0         0         0         0
         0         0         0         0         0         0         0         0
         0         0         0         0         0         0         0         0
         0         0         0         0         0         0         0         0
         0         0         0         0         0         0         0         0
         0         0         0         0         0         0         0         0
         0         0         0         0         0         0         0         0
         0         0         0         0         0         0         0         0
         0         0         0         0         0         0         0         0
         0         0         0         0         0         0         0         0
         0         0         0         0         0         0         0         0
         0         0         0         0         0         0         0         0
         0         0         0         0         0         0         0         0
         0         0         0         0         0         0         0         0
         0         0         0         0         0         0         0         0
         0         0         0         0         0         0         0         0
         0         0         0         0         0         0         0         0
         0         0         0         0         0         0         0         0
         0         0         0         0         0         0         0         0
         0         0         0         0         0         0         0         0
         0         0         0         0         0         0         0         0
         0         0         0         0         0         0         0         0
         0         0         0         0         0         0         0         0
         0         0         0         0         0         0         0         0
         0         0         0         0         0         0         0         0
         0         0         0         0         0         0         0         0
         0         0         0         0         0         0         0         0
         0         0         0         0         0         0         0         0
         0         0         0         0         0         0         0         0
         0         0         0         0         0         0         0         0
         0         0         0         0         0         0         0         0
         0         0         0         0         0         0         0         0
         0         0         0         0         0         0         0         0
         0         0         0         0         0         0         0         0
         0         0         0         0         0         0         0         0
         0         0         0         0         0         0         0         0
         0         0         0         0         0         0         0         0
         0         0         0         0         0         0         0         0
         0         0         0         0         0         0         0         0
         0         0         0         0         0         0         0         0
         0         0         0         0         0         0         0         0
         0         0         0         0         0         0         0         0
         0         0         0         0         0         0         0         0
         0         0         0         0         0         0         0         0
         0         0         0         0         0         0         0         0
         0         0         0         0         0         0         0         0
         0         0         0         0         0         0         0         0
         0         0         0         0         0         0         0         0
         0         0         0         0         0         0         0         0
         0         0         0         0         0         0         0         0
         0         0         0         0         0         0         0         0
         0         0         0         0         0         0         0         0
         0         0         0         0         0         0         0         0
         0         0         0         0         0         0         0         0
         0         0         0         0         0         0         0         0
         0         0         0         0         0         0         0         0
         0         0         0         0         0         0         0         0
         0         0         0         0         0         0         0         0
         0         0         0         0         0         0         0         0
         0         0         0         0         0         0         0         0
         0         0         0         0         0         0         0         0
         0         0         0         0         0         0         0         0
         0         0         0         0         0         0         0         0
         0         0         0         0         0         0         0         0
         0         0         0         0         0         0         0         0
         0         0         0         0         0         0         0         0
         0         0         0         0         0         0         0         0
         0         0         0         0         0         0         0         0
         0         0         0         0         0         0         0         0
         0         0         0         0         0         0         0         0
         0         0         0         0         0         0         0         0
         0         0         0         0         0         0         0         0
         0         0         0         0         0         0         0         0
         0         0         0         0         0         0         0         0
         0         0         0         0         0         0         0         0
         0         0         0         0         0         0         0         0
         0         0         0         0         0         0         0         0
         0         0         0         0         0         0         0         0
         0         0         0         0         0         0         0         0
         0         0         0         0         0         0         0         0
         0         0         0         0         0         0         0         0
         0         0         0         0         0         0         0         0
         0         0         0         0         0         0         0         0
         0         0         0         0         0         0         0         0
         0         0         0         0         0         0         0         0
         0         0         0         0         0         0         0         0
         0         0         0         0         0         0         0         0
         0         0         0         0         0         0         0         0
         0         0         0         0         0         0         0         0
         0         0         0         0         0         0         0         0
         0         0         0         0         0         0         0         0
         0         0         0         0         0         0         0         0
         0         0         0         0         0         0         0         0
         0         0         0         0         0         0         0         0
         0         0         0         0         0         0         0         0
         0         0         0         0         0         0         0         0
         0         0         0         0         0         0         0         0
         0         0         0         0         0         0         0         0
         0         0         0         0         0         0         0         0
         0         0         0         0         0         0         0         0
         0         0         0         0         0         0         0         0
         0         0         0         0         0         0         0         0
         0         0         0         0         0         0         0         0
         0         0         0         0         0         0         0         0
         0         0         0         0         0         0         0         0
         0         0         0         0         0         0         0         0
         0         0         0         0         0         0         0         0
         0         0         0         0         0         0         0         0
         0         0         0         0         0         0         0         0
         0         0         0         0         0         0         0         0
         0         0         0         0         0         0         0         0
         0         0         0         0         0         0         0         0
         0         0         0         0         0         0         0         0
         0         0         0         0         0         0         0         0
         0         0         0         0         0         0         0         0
         0         0         0         0         0         0         0         0
         0         0         0         0         0         0         0         0
         0         0         0         0         0         0         0         0
         0         0         0         0         0         0         0         0
         0         0         0         0         0         0         0         0
         0         0         0         0         0         0         0         0
         0         0         0         0         0         0         0         0
         0         0         0         0         0         0         0         0
         0         0         0         0         0         0         0         0
         0         0         0         0         0         0         0         0
         0         0         0         0         0         0         0         0
         0         0         0         0         0         0         0         0
         0         0         0         0         0         0         0         0
         0         0         0         0         0         0         0         0
         0         0         0         0         0         0         0         0
         0         0         0         0         0         0         0         0
         0         0         0         0         0         0         0         0
         0         0         0         0         0         0         0         0
         0         0         0         0         0         0         0         0
         0         0         0         0         0         0         0         0
         0         0         0         0         0         0         0         0
         0         0         0         0         0         0         0         0
         0         0         0         0         0         0         0         0
         0         0         0         0         0         0         0         0
         0         0         0         0         0         0         0         0
         0         0         0         0         0         0         0         0
         0         0         0         0         0         0         0         0
         0         0         0         0         0         0         0         0
         0         0         0         0         0         0         0         0
         0         0         0         0         0         0         0         0
         0         0         0         0         0         0         0         0
         0         0         0         0         0         0         0         0
         0         0         0         0         0         0         0         0
         0         0         0         0         0         0         0         0
         0         0         0         0         0         0         0         0
         0         0         0         0         0         0         0         0
         0         0         0         0         0         0         0         0
         0         0         0         0         0         0         0         0
         0         0         0         0         0         0         0         0
         0         0         0         0         0         0         0         0
         0         0         0         0         0         0         0         0
         0         0         0         0         0         0         0         0
         0         0         0         0         0         0         0         0
         0         0         0         0         0         0         0         0
         0         0         0         0         0         0         0         0
         0         0         0         0         0         0         0         0
         0         0         0         0         0         0         0         0
         0         0         0         0         0         0         0         0
         0         0         0         0         0         0         0         0
         0         0         0         0         0         0         0         0
         0         0         0         0         0         0         0         0
         0         0         0         0         0         0         0         0
         0         0         0         0         0         0         0         0
         0         0         0         0         0         0         0         0
         0         0         0         0         0         0         0         0
         0         0         0         0         0         0         0         0
         0         0         0         0         0         0         0         0
         0         0         0         0         0         0         0         0
         0         0         0         0         0         0         0         0
         0         0         0         0         0         0         0         0
         0         0         0         0         0         0         0         0
         0         0         0         0         0         0         0         0
         0         0         0         0         0         0         0         0
         0         0         0         0         0         0         0         0
         0         0         0         0         0         0         0         0
         0         0         0         0         0         0         0         0
         0         0         0         0         0         0         0         0
         0         0         0         0         0         0         0         0
         0         0         0         0         0         0         0         0
         0         0         0         0         0         0         0         0
         0         0         0         0         0         0         0         0
         0         0         0         0         0         0         0         0
         0         0         0         0         0         0         0         0
         0         0         0         0         0         0         0         0
         0         0         0         0         0         0         0         0
         0         0         0         0         0         0         0         0
         0         0         0         0         0         0         0         0
         0         0         0         0         0         0         0         0
         0         0         0         0         0         0         0         0
         0         0         0         0         0         0         0         0
         0         0         0         0         0         0         0         0
         0         0         0         0         0         0         0         0
         0         0         0         0         0         0         0         0
         0         0         0         0         0         0         0         0
         0         0         0         0         0         0         0         0
         0         0         0         0         0         0         0         0
         0         0         0         0         0         0         0         0
         0         0         0         0         0         0         0         0
         0         0         0         0         0         0         0         0
         0         0         0         0         0         0         0         0
         0         0         0         0         0         0         0         0
         0         0         0         0         0         0         0         0
         0         0         0         0         0         0         0         0
         0         0         0         0         0         0         0         0
         0         0         0         0         0         0         0         0
         0         0         0         0         0         0         0         0
         0         0         0         0         0         0         0         0
         0         0         0         0         0         0         0         0
         0         0         0         0         0         0         0         0
         0         0         0         0         0         0         0         0
         0         0         0         0         0         0         0         0
         0         0         0         0         0         0         0         0
         0         0         0         0         0         0         0         0
         0         0         0         0         0         0         0         0
         0         0         0         0         0         0         0         0
         0         0         0         0         0         0         0         0
         0         0         0         0         0         0         0         0
         0         0         0         0         0         0         0         0
         0         0         0         0         0         0         0         0
         0         0         0         0         0         0         0         0
         0         0         0         0         0         0         0         0
         0         0         0         0         0         0         0         0
         0         0         0         0         0         0         0         0
         0         0         0         0         0         0         0         0
         0         0         0         0         0         0         0         0
         0         0         0         0         0         0         0         0
         0         0         0         0         0         0         0         0
         0         0         0         0         0         0         0         0
         0         0         0         0         0         0         0         0
         0         0         0         0         0         0         0         0
         0         0         0         0         0         0         0         0
         0         0         0         0         0         0         0         0
         0         0         0         0         0         0         0         0
         0         0         0         0         0         0         0         0
         0         0         0         0         0         0         0         0
         0         0         0         0         0         0         0         0
         0         0         0         0         0         0         0         0
         0         0         0         0         0         0         0         0
         0         0         0         0         0         0         0         0
         0         0         0         0         0         0         0         0
         0         0         0         0         0         0         0         0
         0         0         0         0         0         0         0         0
         0         0         0         0         0         0         0         0
         0         0         0         0         0         0         0         0
         0         0         0         0         0         0         0         0
         0         0         0         0         0         0         0         0
         0         0         0         0         0         0         0         0
         0         0         0         0         0         0         0         0
         0         0         0         0         0         0         0         0
         0         0         0         0         0         0         0         0
         0         0         0         0         0         0         0         0
         0         0         0         0         0         0         0         0
         0         0         0         0         0         0         0         0
         0         0         0         0         0         0         0         0
         0         0         0         0         0         0         0         0
         0         0         0         0         0         0         0         0
         0         0         0         0         0         0         0         0
         0         0         0         0         0         0         0         0
         0         0         0         0         0         0         0         0
         0         0         0         0         0         0         0         0
         0         0         0         0         0         0         0         0
         0         0         0         0         0         0         0         0
         0         0         0         0         0         0         0         0
         0         0         0         0         0         0         0         0
         0         0         0         0         0         0         0         0
         0         0         0         0         0         0         0         0
         0         0         0         0         0         0         0         0
         0         0         0         0         0         0         0         0
         0         0         0         0         0         0         0         0
         0         0         0         0         0         0         0         0
         0         0         0         0         0         0         0         0
         0         0         0         0         0         0         0         0
         0         0         0         0         0         0         0         0
         0         0         0         0         0         0         0         0
         0         0         0         0         0         0         0         0
         0         0         0         0         0         0         0         0
         0         0         0         0         0         0         0         0
         0         0         0         0         0         0         0         0
         0         0         0         0         0         0         0         0
         0         0         0         0         0         0         0         0
         0         0         0         0         0         0         0         0
         0         0         0         0         0         0         0         0
         0         0         0         0         0         0         0         0
         0         0         0         0         0         0         0         0
         0         0         0         0         0         0         0         0
         0         0         0         0         0         0         0         0
         0         0         0         0         0         0         0         0
         0         0         0         0         0         0         0         0
         0         0         0         0         0         0         0         0
         0         0         0         0         0         0         0         0
         0         0         0         0         0         0         0         0
         0         0         0         0         0         0         0         0
         0         0         0         0         0         0         0         0
         0         0         0         0         0         0         0         0
         0         0         0         0         0         0         0         0
         0         0         0         0         0         0         0         0
         0         0         0         0         0         0         0         0
         0         0         0         0         0         0         0         0
         0         0         0         0         0         0         0         0
         0         0         0         0         0         0         0         0
         0         0         0         0         0         0         0         0
         0         0         0         0         0         0         0         0
         0         0         0         0         0         0         0         0
         0         0         0         0         0         0         0         0
         0         0         0         0         0         0         0         0
         0         0         0         0         0         0         0         0
         0         0         0         0         0         0         0         0
         0         0         0         0         0         0         0         0
         0         0         0         0         0         0         0         0
         0         0         0         0         0         0         0         0
         0         0         0         0         0         0         0         0
         0         0         0         0         0         0         0         0
         0         0         0         0         0         0         0         0
         0         0         0         0         0         0         0         0
         0         0         0         0         0         0         0         0
         0         0         0         0         0         0         0         0
         0         0         0         0         0         0         0         0
         0         0         0         0         0         0         0         0
         0         0         0         0         0         0         0         0
         0         0         0         0         0         0         0         0
         0         0         0         0         0         0         0         0
         0         0         0         0         0         0         0         0
         0         0         0         0         0         0         0         0
         0         0         0         0         0         0         0         0
         0         0         0         0         0         0         0         0
         0         0         0         0         0         0         0         0
         0         0         0         0         0         0         0         0
         0         0         0         0         0         0         0         0
         0         0         0         0         0         0         0         0
         0         0         0         0         0         0         0         0
         0         0         0         0         0         0         0         0
         0         0         0         0         0         0         0         0
         0         0         0         0         0         0         0         0
         0         0         0         0         0         0         0         0
         0         0         0         0         0         0         0         0
         0         0         0         0         0         0         0         0
         0         0         0         0         0         0         0         0
         0         0         0         0         0         0         0         0
         0         0         0         0         0         0         0         0
         0         0         0         0         0         0         0         0
         0         0         0         0         0         0         0         0
         0         0         0         0         0         0         0         0
         0         0         0         0         0         0         0         0
         0         0         0         0         0         0         0         0
         0         0         0         0         0         0         0         0
         0         0         0         0         0         0         0         0
         0         0         0         0         0         0         0         0
         0         0         0         0         0         0         0         0
         0         0         0         0         0         0         0         0
         0         0         0         0         0         0         0         0
         0         0         0         0         0         0         0         0
         0         0         0         0         0         0         0         0
         0         0         0         0         0         0         0         0
         0         0         0         0         0         0         0         0
         0         0         0         0         0         0         0         0
         0         0         0         0         0         0         0         0
         0         0         0         0         0         0         0         0
         0         0         0         0         0         0         0         0
         0         0         0         0         0         0         0         0
         0         0         0         0         0         0         0         0
         0         0         0         0         0         0         0         0
         0         0         0         0         0         0         0         0
         0         0         0         0         0         0         0         0
         0         0         0         0         0         0         0         0
         0         0         0         0         0         0         0         0
         0         0         0         0         0         0         0         0
         0         0         0         0         0         0         0         0
         0         0         0         0         0         0         0         0
         0         0         0         0         0         0         0         0
         0         0         0         0         0         0         0         0
         0         0         0         0         0         0         0         0
         0         0         0         0         0         0         0         0
         0         0         0         0         0         0         0         0
         0         0         0         0         0         0         0         0
         0         0         0         0         0         0         0         0
         0         0         0         0         0         0         0         0
         0         0         0         0         0         0         0         0
         0         0         0         0         0         0         0         0
         0         0         0         0         0         0         0         0
         0         0         0         0         0         0         0         0
         0         0         0         0         0         0         0         0
         0         0         0         0         0         0         0         0
         0         0         0         0         0         0         0         0
         0         0         0         0         0         0         0         0
         0         0         0         0         0         0         0         0
         0         0         0         0         0         0         0         0
         0         0         0         0         0         0         0         0
         0         0         0         0         0         0         0         0
         0         0         0         0         0         0         0         0
         0         0         0         0         0         0         0         0
         0         0         0         0         0         0         0         0
         0         0         0         0         0         0         0         0
         0         0         0         0         0         0         0         0
         0         0         0         0         0         0         0         0
         0         0         0         0         0         0         0         0
         0         0         0         0         0         0         0         0
         0         0         0         0         0         0         0         0
         0         0         0         0         0         0         0         0
         0         0         0         0         0         0         0         0
         0         0         0         0         0         0         0         0
         0         0         0         0         0         0         0         0
         0         0         0         0         0         0         0         0
         0         0         0         0         0         0         0         0
         0         0         0         0         0         0         0         0
         0         0         0         0         0         0         0         0
         0         0         0         0         0         0         0         0
         0         0         0         0         0         0         0         0
         0         0         0         0         0         0         0         0
         0         0         0         0         0         0         0         0
         0         0         0         0         0         0         0         0
         0         0         0         0         0         0         0         0
         0         0         0         0         0         0         0         0
         0         0         0         0         0         0         0         0
         0         0         0         0         0         0         0         0
         0         0         0         0         0         0         0         0
         0         0         0         0         0         0         0         0
         0         0         0         0         0         0         0         0
         0         0         0         0         0         0         0         0
         0         0         0         0         0         0         0         0
         0         0         0         0         0         0         0         0
         0         0         0         0         0         0         0         0
         0         0         0         0         0         0         0         0
         0         0         0         0         0         0         0         0
         0         0         0         0         0         0         0         0
         0         0         0         0         0         0         0         0
         0         0         0         0         0         0         0         0
         0         0         0         0         0         0         0         0
         0         0         0         0         0         0         0         0
         0         0         0         0         0         0         0         0
         0         0         0         0         0         0         0         0
         0         0         0         0         0         0         0         0
         0         0         0         0         0         0         0         0
         0         0         0         0         0         0         0         0
         0         0         0         0         0         0         0         0
         0         0         0         0         0         0         0         0
         0         0         0         0         0         0         0         0
         0         0         0         0         0         0         0         0
         0         0         0         0         0         0         0         0
         0         0         0         0         0         0         0         0
         0         0         0         0         0         0         0         0
         0         0         0         0         0         0         0         0
         0         0         0         0         0         0         0         0
         0         0         0         0         0         0         0         0
         0         0         0         0         0         0         0         0
         0         0         0         0         0         0         0         0
         0         0         0         0         0         0         0         0
         0         0         0         0         0         0         0         0
         0         0         0         0         0         0         0         0
         0         0         0         0         0         0         0         0
         0         0         0         0         0         0         0         0
         0         0         0         0         0         0         0         0
         0         0         0         0         0         0         0         0
         0         0         0         0         0         0         0         0
         0         0         0         0         0         0         0         0
         0         0         0         0         0         0         0         0
         0         0         0         0         0         0         0         0
         0         0         0         0         0         0         0         0
         0         0         0         0         0         0         0         0
         0         0         0         0         0         0         0         0
         0         0         0         0         0         0         0         0
         0         0         0         0         0         0         0         0
         0         0         0         0         0         0         0         0
         0         0         0         0         0         0         0         0
         0         0         0         0         0         0         0         0
         0         0         0         0         0         0         0         0
         0         0         0         0         0         0         0         0
         0         0         0         0         0         0         0         0
         0         0         0         0         0         0         0         0
         0         0         0         0         0         0         0         0
         0         0         0         0         0         0         0         0
         0         0         0         0         0         0         0         0
         0         0         0         0         0         0         0         0
         0         0         0         0         0         0         0         0
         0         0         0         0         0         0         0         0
         0         0         0         0         0         0         0         0
         0         0         0         0         0         0         0         0
         0         0         0         0         0         0         0         0
         0         0         0         0         0         0         0         0
         0         0         0         0         0         0         0         0
         0         0         0         0         0         0         0         0
         0         0         0         0         0         0         0         0
         0         0         0         0         0         0         0         0
         0         0         0         0         0         0         0         0
         0         0         0         0         0         0         0         0
         0         0         0         0         0         0         0         0
         0         0         0         0         0         0         0         0
         0         0         0         0         0         0         0         0
         0         0         0         0         0         0         0         0
         0         0         0         0         0         0         0         0
         0         0         0         0         0         0         0         0
         0         0         0         0         0         0         0         0
         0         0         0         0         0         0         0         0
         0         0         0         0         0         0         0         0
         0         0         0         0         0         0         0         0
         0         0         0         0         0         0         0         0
         0         0         0         0         0         0         0         0
         0         0         0         0         0         0         0         0
         0         0         0         0         0         0         0         0
         0         0         0         0         0         0         0         0
         0         0         0         0         0         0         0         0
         0         0         0         0         0         0         0         0
         0         0         0         0         0         0         0         0
         0         0         0         0         0         0         0         0
         0         0         0         0         0         0         0         0
         0         0         0         0         0         0         0         0
         0         0         0         0         0         0         0         0
         0         0         0         0         0         0         0         0
         0         0         0         0         0         0         0         0
         0         0         0         0         0         0         0         0
         0         0         0         0         0         0         0         0
         0         0         0         0         0         0         0         0
         0         0         0         0         0         0         0         0
         0         0         0         0         0         0         0         0
         0         0         0         0         0         0         0         0
         0         0         0         0         0         0         0         0
         0         0         0         0         0         0         0         0
         0         0         0         0         0         0         0         0
         0         0         0         0         0         0         0         0
         0         0         0         0         0         0         0         0
         0         0         0         0         0         0         0         0
         0         0         0         0         0         0         0         0
         0         0         0         0         0         0         0         0
         0         0         0         0         0         0         0         0
         0         0         0         0         0         0         0         0
         0         0         0         0         0         0         0         0
         0         0         0         0         0         0         0         0
         0         0         0         0         0         0         0         0
         0         0         0         0         0         0         0         0
         0         0         0         0         0         0         0         0
         0         0         0         0         0         0         0         0
         0         0         0         0         0         0         0         0
         0         0         0         0         0         0         0         0
         0         0         0         0         0         0         0         0
         0         0         0         0         0         0         0         0
         0         0         0         0         0         0         0         0
         0         0         0         0         0         0         0         0
         0         0         0         0         0         0         0         0
         0         0         0         0         0         0         0         0
         0         0         0         0         0         0         0         0
         0         0         0         0         0         0         0         0
         0         0         0         0         0         0         0         0
         0         0         0         0         0         0         0         0
         0         0         0         0         0         0         0         0
         0         0         0         0         0         0         0         0
         0         0         0         0         0         0         0         0
         0         0         0         0         0         0         0         0
         0         0         0         0         0         0         0         0
         0         0         0         0         0         0         0         0
         0         0         0         0         0         0         0         0
         0         0         0         0         0         0         0         0
         0         0         0         0         0         0         0         0
         0         0         0         0         0         0         0         0
         0         0         0         0         0         0         0         0
         0         0         0         0         0         0         0         0
         0         0         0         0         0         0         0         0
         0         0         0         0         0         0         0         0
         0         0         0         0         0         0         0         0
         0         0         0         0         0         0         0         0
         0         0         0         0         0         0         0         0
         0         0         0         0         0         0         0         0
         0         0         0         0         0         0         0         0
         0         0         0         0         0         0         0         0
         0         0         0         0         0         0         0         0
         0         0         0         0         0         0         0         0
         0         0         0         0         0         0         0         0
         0         0         0         0         0         0         0         0
         0         0         0         0         0         0         0         0
         0         0         0         0         0         0         0         0
         0         0         0         0         0         0         0         0
         0         0         0         0         0         0         0         0
         0         0         0         0         0         0         0         0
         0         0         0         0         0         0         0         0
         0         0         0         0         0         0         0         0
         0         0         0         0         0         0         0         0
         0         0         0         0         0         0         0         0
         0         0         0         0         0         0         0         0
         0         0         0         0         0         0         0         0
         0         0         0         0         0         0         0         0
         0         0         0         0         0         0         0         0
         0         0         0         0         0         0         0         0
         0         0         0         0         0         0         0         0
         0         0         0         0         0         0         0         0
         0         0         0         0         0         0         0         0
         0         0         0         0         0         0         0         0
         0         0         0         0         0         0         0         0
         0         0         0         0         0         0         0         0
         0         0         0         0         0         0         0         0
         0         0         0         0         0         0         0         0
         0         0         0         0         0         0         0         0
         0         0         0         0         0         0         0         0
         0         0         0         0         0         0         0         0
         0         0         0         0         0         0         0         0
         0         0         0         0         0         0         0         0
         0         0         0         0         0         0         0         0
         0         0         0         0         0         0         0         0
         0         0         0         0         0         0         0         0
         0         0         0         0         0         0         0         0
         0         0         0         0         0         0         0         0
         0         0         0         0         0         0         0         0
         0         0         0         0         0         0         0         0
         0         0         0         0         0         0         0         0
         0         0         0         0         0         0         0         0
         0         0         0         0         0         0         0         0
         0         0         0         0         0         0         0         0
         0         0         0         0         0         0         0         0
         0         0         0         0         0         0         0         0
         0         0         0         0         0         0         0         0
         0         0         0         0         0         0         0         0
         0         0         0         0         0         0         0         0
         0         0         0         0         0         0         0         0
         0         0         0         0         0         0         0         0
         0         0         0         0         0         0         0         0
         0         0         0         0         0         0         0         0
         0         0         0         0         0         0         0         0
         0         0         0         0         0         0         0         0
         0         0         0         0         0         0         0         0
         0         0         0         0         0         0         0         0
         0         0         0         0         0         0         0         0
         0         0         0         0         0         0         0         0
         0         0         0         0         0         0         0         0
         0         0         0         0         0         0         0         0
         0         0         0         0         0         0         0         0
         0         0         0         0         0         0         0         0
         0         0         0         0         0         0         0         0
         0         0         0         0         0         0         0         0
         0         0         0         0         0         0         0         0
         0         0         0         0         0         0         0         0
         0         0         0         0         0         0         0         0
         0         0         0         0         0         0         0         0
         0         0         0         0         0         0         0         0
         0         0         0         0         0         0         0         0
         0         0         0         0         0         0         0         0
         0         0         0         0         0         0         0         0
         0         0         0         0         0         0         0         0
         0         0         0         0         0         0         0         0
         0         0         0         0         0         0         0         0
         0         0         0         0         0         0         0         0
         0         0         0         0         0         0         0         0
         0         0         0         0         0         0         0         0
         0         0         0         0         0         0         0         0
         0         0         0         0         0         0         0         0
         0         0         0         0         0         0         0         0
         0         0         0         0         0         0         0         0
         0         0         0         0         0         0         0         0
         0         0         0         0         0         0         0         0
         0         0         0         0         0         0         0         0
         0         0         0         0         0         0         0         0
         0         0         0         0         0         0         0         0
         0         0         0         0         0         0         0         0
         0         0         0         0         0         0         0         0
         0         0         0         0         0         0         0         0
         0         0         0         0         0         0         0         0
         0         0         0         0         0         0         0         0
         0         0         0         0         0         0         0         0
         0         0         0         0         0         0         0         0
         0         0         0         0         0         0         0         0
         0         0         0         0         0         0         0         0
         0         0         0         0         0         0         0         0
         0         0         0         0         0         0         0         0
         0         0         0         0         0         0         0         0
         0         0         0         0         0         0         0         0
         0         0         0         0         0         0         0         0
         0         0         0         0         0         0         0         0
         0         0         0         0         0         0         0         0
         0         0         0         0         0         0         0         0
         0         0         0         0         0         0         0         0
         0         0         0         0         0         0         0         0
         0         0         0         0         0         0         0         0
         0         0         0         0         0         0         0         0
         0         0         0         0         0         0         0         0
         0         0         0         0         0         0         0         0
         0         0         0         0         0         0         0         0
         0         0         0         0         0         0         0         0
         0         0         0         0         0         0         0         0
         0         0         0         0         0         0         0         0
         0         0         0         0         0         0         0         0
         0         0         0         0         0         0         0         0
         0         0         0         0         0         0         0         0
         0         0         0         0         0         0         0         0
         0         0         0         0         0         0         0         0
         0         0         0         0         0         0         0         0
         0         0         0         0         0         0         0         0
         0         0         0         0         0         0         0         0
         0         0         0         0         0         0         0         0
         0         0         0         0         0         0         0         0
         0         0         0         0         0         0         0         0
         0         0         0         0         0         0         0         0
         0         0         0         0         0         0         0         0
         0         0         0         0         0         0         0         0
         0         0         0         0         0         0         0         0
         0         0         0         0         0         0         0         0
         0         0         0         0         0         0         0         0
         0         0         0         0         0         0         0         0
         0         0         0         0         0         0         0         0
         0         0         0         0         0         0         0         0
         0         0         0         0         0         0         0         0
         0         0         0         0         0         0         0         0
         0         0         0         0         0         0         0         0
         0         0         0         0         0         0         0         0
         0         0         0         0         0         0         0         0
         0         0         0         0         0         0         0         0
         0         0         0         0         0         0         0         0
         0         0         0         0         0         0         0         0
         0         0         0         0         0         0         0         0
         0         0         0         0         0         0         0         0
         0         0         0         0         0         0         0         0
         0         0         0         0         0         0         0         0
         0         0         0         0         0         0         0         0
         0         0         0         0         0         0         0         0
         0         0         0         0         0         0         0         0
         0         0         0         0         0         0         0         0
         0         0         0         0         0         0         0         0
         0         0         0         0         0         0         0         0
         0         0         0         0         0         0         0         0
         0         0         0         0         0         0         0         0
         0         0         0         0         0         0         0         0
         0         0         0         0         0         0         0         0
         0         0         0         0         0         0         0         0
         0         0         0         0         0         0         0         0
         0         0         0         0         0         0         0         0
         0         0         0         0         0         0         0         0
         0         0         0         0         0         0         0         0
         0         0         0         0         0         0         0         0
         0         0         0         0         0         0         0         0
         0         0         0         0         0         0         0         0
         0         0         0         0         0         0         0         0
         0         0         0         0         0         0         0         0
         0         0         0         0         0         0         0         0
         0         0         0         0         0         0         0         0
         0         0         0         0         0         0         0         0
         0         0         0         0         0         0         0         0
         0         0         0         0         0         0         0         0
         0         0         0         0         0         0         0         0
         0         0         0         0         0         0         0         0
         0         0         0         0         0         0         0         0
         0         0         0         0         0         0         0         0
         0         0         0         0         0         0         0         0
         0         0         0         0         0         0         0         0
         0         0         0         0         0         0         0         0
         0         0         0         0         0         0         0         0
         0         0         0         0         0         0         0         0
         0         0         0         0         0         0         0         0
         0         0         0         0         0         0         0         0
         0         0         0         0         0         0         0         0
         0         0         0         0         0         0         0         0
         0         0         0         0         0         0         0         0
         0         0         0         0         0         0         0         0
         0         0         0         0         0         0         0         0
         0         0         0         0         0         0         0         0
         0         0         0         0         0         0         0         0
         0         0         0         0         0         0         0         0
         0         0         0         0         0         0         0         0
         0         0         0         0         0         0         0         0
         0         0         0         0         0         0         0         0
         0         0         0         0         0         0         0         0
         0         0         0         0         0         0         0         0
         0         0         0         0         0         0         0         0
         0         0         0         0         0         0         0         0
         0         0         0         0         0         0         0         0
         0         0         0         0         0         0         0         0
         0         0         0         0         0         0         0         0
         0         0         0         0         0         0         0         0
         0         0         0         0         0         0         0         0
         0         0         0         0         0         0         0         0
         0         0         0         0         0         0         0         0
         0         0         0         0         0         0         0         0
         0         0         0         0         0         0         0         0
         0         0         0         0         0         0         0         0
         0         0         0         0         0         0         0         0
         0         0         0         0         0         0         0         0
         0         0         0         0         0         0         0         0
         0         0         0         0         0         0         0         0
         0         0         0         0         0         0         0         0
         0         0         0         0         0         0         0         0
         0         0         0         0         0         0         0         0
         0         0         0         0         0         0         0         0
         0         0         0         0         0         0         0         0
         0         0         0         0         0         0         0         0
         0         0         0         0         0         0         0         0
         0         0         0         0         0         0         0         0
         0         0         0         0         0         0         0         0
         0         0         0         0         0         0         0         0
         0         0         0         0         0         0         0         0
         0         0         0         0         0         0         0         0
         0         0         0         0         0         0         0         0
         0         0         0         0         0         0         0         0
         0         0         0         0         0         0         0         0
         0         0         0         0         0         0         0         0
         0         0         0         0         0         0         0         0
         0         0         0         0         0         0         0         0
         0         0         0         0         0         0         0         0
         0         0         0         0         0         0         0         0
         0         0         0         0         0         0         0         0
         0         0         0         0         0         0         0         0
         0         0         0         0         0         0         0         0
         0         0         0         0         0         0         0         0
         0         0         0         0         0         0         0         0
         0         0         0         0         0         0         0         0
         0         0         0         0         0         0         0         0
         0         0         0         0         0         0         0         0
         0         0         0         0         0         0         0         0
         0         0         0         0         0         0         0         0
         0         0         0         0         0         0         0         0
         0         0         0         0         0         0         0         0
         0         0         0         0         0         0         0         0
         0         0         0         0         0         0         0         0
         0         0         0         0         0         0         0         0
         0         0         0         0         0         0         0         0
         0         0         0         0         0         0         0         0
         0         0         0         0         0         0         0         0
         0         0         0         0         0         0         0         0
         0         0         0         0         0         0         0         0
         0         0         0         0         0         0         0         0
         0         0         0         0         0         0         0         0
         0         0         0         0         0         0         0         0
         0         0         0         0         0         0         0         0
         0         0         0         0         0         0         0         0
         0         0         0         0         0         0         0         0
         0         0         0         0         0         0         0         0
         0         0         0         0         0         0         0         0
         0         0         0         0         0         0         0         0
         0         0         0         0         0         0         0         0
         0         0         0         0         0         0         0         0
         0         0         0         0         0         0         0         0
         0         0         0         0         0         0         0         0
         0         0         0         0         0         0         0         0
         0         0         0         0         0         0         0         0
         0         0         0         0         0         0         0         0
         0         0         0         0         0         0         0         0
         0         0         0         0         0         0         0         0
         0         0         0         0         0         0         0         0
         0         0         0         0         0         0         0         0
         0         0         0         0         0         0         0         0
         0         0         0         0         0         0         0         0
         0         0         0         0         0         0         0         0
         0         0         0         0         0         0         0         0
         0         0         0         0         0         0         0         0
         0         0         0         0         0         0         0         0
         0         0         0         0         0         0         0         0
         0         0         0         0         0         0         0         0
         0         0         0         0         0         0         0         0
         0         0         0         0         0         0         0         0
         0         0         0         0         0         0         0         0
         0         0         0         0         0         0         0         0
         0         0         0         0         0         0         0         0
         0         0         0         0         0         0         0         0
         0         0         0         0         0         0         0         0
         0         0         0         0         0         0         0         0
         0         0         0         0         0         0         0         0
         0         0         0         0         0         0         0         0
         0         0         0         0         0         0         0         0
         0         0         0         0         0         0         0         0
         0         0         0         0         0         0         0         0
         0         0         0         0         0         0         0         0
         0         0         0         0         0         0         0         0
         0         0         0         0         0         0         0         0
         0         0         0         0         0         0         0         0
         0         0         0         0         0         0         0         0
         0         0         0         0         0         0         0         0
         0         0         0         0         0         0         0         0
         0         0         0         0         0         0         0         0
         0         0         0         0         0         0         0         0
         0         0         0         0         0         0         0         0
         0         0         0         0         0         0         0         0
         0         0         0         0         0         0         0         0
         0         0         0         0         0         0         0         0
         0         0         0         0         0         0         0         0
         0         0         0         0         0         0         0         0
         0         0         0         0         0         0         0         0
         0         0         0         0         0         0         0         0
         0         0         0         0         0         0         0         0
         0         0         0         0         0         0         0         0
         0         0         0         0         0         0         0         0
         0         0         0         0         0         0         0         0
         0         0         0         0         0         0         0         0
         0         0         0         0         0         0         0         0
         0         0         0         0         0         0         0         0
         0         0         0         0         0         0         0         0
         0         0         0         0         0         0         0         0
         0         0         0         0         0         0         0         0
         0         0         0         0         0         0         0         0
         0         0         0         0         0         0         0         0
         0         0         0         0         0         0         0         0
         0         0         0         0         0         0         0         0
         0         0         0         0         0         0         0         0
         0         0         0         0         0         0         0         0
         0         0         0         0         0         0         0         0
         0         0         0         0         0         0         0         0
         0         0         0         0         0         0         0         0
         0         0         0         0         0         0         0         0
         0         0         0         0         0         0         0         0
         0         0         0         0         0         0         0         0
         0         0         0         0         0         0         0         0
         0         0         0         0         0         0         0         0
         0         0         0         0         0         0         0         0
         0         0         0         0         0         0         0         0
         0         0         0         0         0         0         0         0
         0         0         0         0         0         0         0         0
         0         0         0         0         0         0         0         0
         0         0         0         0         0         0         0         0
         0         0         0         0         0         0         0         0
         0         0         0         0         0         0         0         0
         0         0         0         0         0         0         0         0
         0         0         0         0         0         0         0         0
         0         0         0         0         0         0         0         0
         0         0         0         0         0         0         0         0
         0         0         0         0         0         0         0         0
         0         0         0         0         0         0         0         0
         0         0         0         0         0         0         0         0
         0         0         0         0         0         0         0         0
         0         0         0         0         0         0         0         0
         0         0         0         0         0         0         0         0
         0         0         0         0         0         0         0         0
         0         0         0         0         0         0         0         0
         0         0         0         0         0         0         0         0
         0         0         0         0         0         0         0         0
         0         0         0         0         0         0         0         0
         0         0         0         0         0         0         0         0
         0         0         0         0         0         0         0         0
         0         0         0         0         0         0         0         0
         0         0         0         0         0         0         0         0
         0         0         0         0         0         0         0         0
         0         0         0         0         0         0         0         0
         0         0         0         0         0         0         0         0
         0         0         0         0         0         0         0         0
         0         0         0         0         0         0         0         0
         0         0         0         0         0         0         0         0
         0         0         0         0         0         0         0         0
         0         0         0         0         0         0         0         0
         0         0         0         0         0         0         0         0
         0         0         0         0         0         0         0         0
         0         0         0         0         0         0         0         0
         0         0         0         0         0         0         0         0
         0         0         0         0         0         0         0         0
         0         0         0         0         0         0         0         0
         0         0         0         0         0         0         0         0
         0         0         0         0         0         0         0         0
         0         0         0         0         0         0         0         0
         0         0         0         0         0         0         0         0
         0         0         0         0         0         0         0         0
         0         0         0         0         0         0         0         0
         0         0         0         0         0         0         0         0
         0         0         0         0         0         0         0         0
         0         0         0         0         0         0         0         0
         0         0         0         0         0         0         0         0
         0         0         0         0         0         0         0         0
         0         0         0         0         0         0         0         0
         0         0         0         0         0         0         0         0
         0         0         0         0         0         0         0         0
         0         0         0         0         0         0         0         0
         0         0         0         0         0         0         0         0
         0         0         0         0         0         0         0         0
         0         0         0         0         0         0         0         0
         0         0         0         0         0         0         0         0
         0         0         0         0         0         0         0         0
         0         0         0         0         0         0         0         0
         0         0         0         0         0         0         0         0
         0         0         0         0         0         0         0         0
         0         0         0         0         0         0         0         0
         0         0         0         0         0         0         0         0
         0         0         0         0         0         0         0         0
         0         0         0         0         0         0         0         0
         0         0         0         0         0         0         0         0
         0         0         0         0         0         0         0         0
         0         0         0         0         0         0         0         0
         0         0         0         0         0         0         0         0
         0         0         0         0         0         0         0         0
         0         0         0         0         0         0         0         0
         0         0         0         0         0         0         0         0
         0         0         0         0         0         0         0         0
         0         0         0         0         0         0         0         0
         0         0         0         0         0         0         0         0
         0         0         0         0         0         0         0         0
         0         0         0         0         0         0         0         0
         0         0         0         0         0         0         0         0
         0         0         0         0         0         0         0         0
         0         0         0         0         0         0         0         0
         0         0         0         0         0         0         0         0
         0         0         0         0         0         0         0         0
         0         0         0         0         0         0         0         0
         0         0         0         0         0         0         0         0
         0         0         0         0         0         0         0         0
         0         0         0         0         0         0         0         0
         0         0         0         0         0         0         0         0
         0         0         0         0         0         0         0         0
         0         0         0         0         0         0         0         0
         0         0         0         0         0         0         0         0
         0         0         0         0         0         0         0         0
         0         0         0         0         0         0         0         0
         0         0         0         0         0         0         0         0
         0         0         0         0         0         0         0         0
         0         0         0         0         0         0         0         0
         0         0         0         0         0         0         0         0
         0         0         0         0         0         0         0         0
         0         0         0         0         0         0         0         0
         0         0         0         0         0         0         0         0
         0         0         0         0         0         0         0         0
         0         0         0         0         0         0         0         0
         0         0         0         0         0         0         0         0
         0         0         0         0         0         0         0         0
         0         0         0         0         0         0         0         0
         0         0         0         0         0         0         0         0
         0         0         0         0         0         0         0         0
         0         0         0         0         0         0         0         0
         0         0         0         0         0         0         0         0
         0         0         0         0         0         0         0         0
         0         0         0         0         0         0         0         0
         0         0         0         0         0         0         0         0
         0         0         0         0         0         0         0         0
         0         0         0         0         0         0         0         0
         0         0         0         0         0         0         0         0
         0         0         0         0         0         0         0         0
         0         0         0         0         0         0         0         0
         0         0         0         0         0         0         0         0
         0         0         0         0         0         0         0         0
         0         0         0         0         0         0         0         0
         0         0         0         0         0         0         0         0
         0         0         0         0         0         0         0         0
         0         0         0         0         0         0         0         0
         0         0         0         0         0         0         0         0
         0         0         0         0         0         0         0         0
         0         0         0         0         0         0         0         0
         0         0         0         0         0         0         0         0
         0         0         0         0         0         0         0         0
         0         0         0         0         0         0         0         0
         0         0         0         0         0         0         0         0
         0         0         0         0         0         0         0         0
         0         0         0         0         0         0         0         0
         0         0         0         0         0         0         0         0
         0         0         0         0         0         0         0         0
         0         0         0         0         0         0         0         0
         0         0         0         0         0         0         0         0
         0         0         0         0         0         0         0         0
         0         0         0         0         0         0         0         0
         0         0         0         0         0         0         0         0
         0         0         0         0         0         0         0         0
         0         0         0         0         0         0         0         0
         0         0         0         0         0         0         0         0
         0         0         0         0         0         0         0         0
         0         0         0         0         0         0         0         0
         0         0         0         0         0         0         0         0
         0         0         0         0         0         0         0         0
         0         0         0         0         0         0         0         0
         0         0         0         0         0         0         0         0
         0         0         0         0         0         0         0         0
         0         0         0         0         0         0         0         0
         0         0         0         0         0         0         0         0
         0         0         0         0         0         0         0         0
         0         0         0         0         0         0         0         0
         0         0         0         0         0         0         0         0
         0         0         0         0         0         0         0         0
         0         0         0         0         0         0         0         0
         0         0         0         0         0         0         0         0
         0         0         0         0         0         0         0         0
         0         0         0         0         0         0         0         0
         0         0         0         0         0         0         0         0
         0         0         0         0         0         0         0         0
         0         0         0         0         0         0         0         0
         0         0         0         0         0         0         0         0
         0         0         0         0         0         0         0         0
         0         0         0         0         0         0         0         0
         0         0         0         0         0         0         0         0
         0         0         0         0         0         0         0         0
         0         0         0         0         0         0         0         0
         0         0         0         0         0         0         0         0
         0         0         0         0         0         0         0         0
         0         0         0         0         0         0         0         0
         0         0         0         0         0         0         0         0
         0         0         0         0         0         0         0         0
         0         0         0         0         0         0         0         0
         0         0         0         0         0         0         0         0
         0         0         0         0         0         0         0         0
         0         0         0         0         0         0         0         0
         0         0         0         0         0         0         0         0
         0         0         0         0         0         0         0         0
         0         0         0         0         0         0         0         0
         0         0         0         0         0         0         0         0
         0         0         0         0         0         0         0         0
         0         0         0         0         0         0         0         0
         0         0         0         0         0         0         0         0
         0         0         0         0         0         0         0         0
         0         0         0         0         0         0         0         0
         0         0         0         0         0         0         0         0
         0         0         0         0         0         0         0         0
         0         0         0         0         0         0         0         0
         0         0         0         0         0         0         0         0
         0         0         0         0         0         0         0         0
         0         0         0         0         0         0         0         0
         0         0         0         0         0         0         0         0
         0         0         0         0         0         0         0         0
         0         0         0         0         0         0         0         0
         0         0         0         0         0         0         0         0
         0         0         0         0         0         0         0         0
         0         0         0         0         0         0         0         0
         0         0         0         0         0         0         0         0
         0         0         0         0         0         0         0         0
         0         0         0         0         0         0         0         0
         0         0         0         0         0         0         0         0
         0         0         0         0         0         0         0         0
         0         0         0         0         0         0         0         0
         0         0         0         0         0         0         0         0
         0         0         0         0         0         0         0         0
         0         0         0         0         0         0         0         0
         0         0         0         0         0         0         0         0
         0         0         0         0         0         0         0         0
         0         0         0         0         0         0         0         0
         0         0         0         0         0         0         0         0
         0         0         0         0         0         0         0         0
         0         0         0         0         0         0         0         0
         0         0         0         0         0         0         0         0
         0         0         0         0         0         0         0         0
         0         0         0         0         0         0         0         0
         0         0         0         0         0         0         0         0
         0         0         0         0         0         0         0         0
         0         0         0         0         0         0         0         0
         0         0         0         0         0         0         0         0
         0         0         0         0         0         0         0         0
         0         0         0         0         0         0         0         0
         0         0         0         0         0         0         0         0
         0         0         0         0         0         0         0         0
         0         0         0         0         0         0         0         0
         0         0         0         0         0         0         0         0
         0         0         0         0         0         0         0         0
         0         0         0         0         0         0         0         0
         0         0         0         0         0         0         0         0
         0         0         0         0         0         0         0         0
         0         0         0         0         0         0         0         0
         0         0         0         0         0         0         0         0
         0         0         0         0         0         0         0         0
         0         0         0         0         0         0         0         0
         0         0         0         0         0         0         0         0
         0         0         0         0         0         0         0         0
         0         0         0         0         0         0         0         0
         0         0         0         0         0         0         0         0
         0         0         0         0         0         0         0         0
         0         0         0         0         0         0         0         0
         0         0         0         0         0         0         0         0
         0         0         0         0         0         0         0         0
         0         0         0         0         0         0         0         0
         0         0         0         0         0         0         0         0
         0         0         0         0         0         0         0         0
         0         0         0         0         0         0         0         0
         0         0         0         0         0         0         0         0
         0         0         0         0         0         0         0         0
         0         0         0         0         0         0         0         0
         0         0         0         0         0         0         0         0
         0         0         0         0         0         0         0         0
         0         0         0         0         0         0         0         0
         0         0         0         0         0         0         0         0
         0         0         0         0         0         0         0         0
         0         0         0         0         0         0         0         0
         0         0         0         0         0         0         0         0
         0         0         0         0         0         0         0         0
         0         0         0         0         0         0         0         0
         0         0         0         0         0         0         0         0
         0         0         0         0         0         0         0         0
         0         0         0         0         0         0         0         0
         0         0         0         0         0         0         0         0
         0         0         0         0         0         0         0         0
         0         0         0         0         0         0         0         0
         0         0         0         0         0         0         0         0
         0         0         0         0         0         0         0         0
         0         0         0         0         0         0         0         0
         0         0         0         0         0         0         0         0
         0         0         0         0         0         0         0         0
         0         0         0         0         0         0         0         0
         0         0         0         0         0         0         0         0
         0         0         0         0         0         0         0         0
         0         0         0         0         0         0         0         0
         0         0         0         0         0         0         0         0
         0         0         0         0         0         0         0         0
         0         0         0         0         0         0         0         0
         0         0         0         0         0         0         0         0
         0         0         0         0         0         0         0         0
         0         0         0         0         0         0         0         0
         0         0         0         0         0         0         0         0
         0         0         0         0         0         0         0         0
         0         0         0         0         0         0         0         0
         0         0         0         0         0         0         0         0
         0         0         0         0         0         0         0         0
         0         0         0         0         0         0         0         0
         0         0         0         0         0         0         0         0
         0         0         0         0         0         0         0         0
         0         0         0         0         0         0         0         0
         0         0         0         0         0         0         0         0
         0         0         0         0         0         0         0         0
         0         0         0         0         0         0         0         0
         0         0         0         0         0         0         0         0
         0         0         0         0         0         0         0         0
         0         0         0         0         0         0         0         0
         0         0         0         0         0         0         0         0
         0         0         0         0         0         0         0         0
         0         0         0         0         0         0         0         0
         0         0         0         0         0         0         0         0
         0         0         0         0         0         0         0         0
         0         0         0         0         0         0         0         0
         0         0         0         0         0         0         0         0
         0         0         0         0         0         0         0         0
         0         0         0         0         0         0         0         0
         0         0         0         0         0         0         0         0
         0         0         0         0         0         0         0         0
         0         0         0         0         0         0         0         0
         0         0         0         0         0         0         0         0
         0         0         0         0         0         0         0         0
         0         0         0         0         0         0         0         0
         0         0         0         0         0         0         0         0
         0         0         0         0         0         0         0         0
         0         0         0         0         0         0         0         0
         0         0         0         0         0         0         0         0
         0         0         0         0         0         0         0         0
         0         0         0         0         0         0         0         0
         0         0         0         0         0         0         0         0
         0         0         0         0         0         0         0         0
         0         0         0         0         0         0         0         0
         0         0         0         0         0         0         0         0
         0         0         0         0         0         0         0         0
         0         0         0         0         0         0         0         0
         0         0         0         0         0         0         0         0
         0         0         0         0         0         0         0         0
         0         0         0         0         0         0         0         0
         0         0         0         0         0         0         0         0
         0         0         0         0         0         0         0         0
         0         0         0         0         0         0         0         0
         0         0         0         0         0         0         0         0
         0         0         0         0         0         0         0         0
         0         0         0         0         0         0         0         0
         0         0         0         0         0         0         0         0
         0         0         0         0         0         0         0         0
         0         0         0         0         0         0         0         0
         0         0         0         0         0         0         0         0
         0         0         0         0         0         0         0         0
         0         0         0         0         0         0         0         0
         0         0         0         0         0         0         0         0
         0         0         0         0         0         0         0         0
         0         0         0         0         0         0         0         0
         0         0         0         0         0         0         0         0
         0         0         0         0         0         0         0         0
         0         0         0         0         0         0         0         0
         0         0         0         0         0         0         0         0
         0         0         0         0         0         0         0         0
         0         0         0         0         0         0         0         0
         0         0         0         0         0         0         0         0
         0         0         0         0         0         0         0         0
         0         0         0         0         0         0         0         0
         0         0         0         0         0         0         0         0
         0         0         0         0         0         0         0         0
         0         0         0         0         0         0         0         0
         0         0         0         0         0         0         0         0
         0         0         0         0         0         0         0         0
         0         0         0         0         0         0         0         0
         0         0         0         0         0         0         0         0
         0         0         0         0         0         0         0         0
         0         0         0         0         0         0         0         0
         0         0         0         0         0         0         0         0
         0         0         0         0         0         0         0         0
         0         0         0         0         0         0         0         0
         0         0         0         0         0         0         0         0
         0         0         0         0         0         0         0         0
         0         0         0         0         0         0         0         0
         0         0         0         0         0         0         0         0
         0         0         0         0         0         0         0         0
         0         0         0         0         0         0         0         0
         0         0         0         0         0         0         0         0
         0         0         0         0         0         0         0         0
         0         0         0         0         0         0         0         0
         0         0         0         0         0         0         0         0
         0         0         0         0         0         0         0         0
         0         0         0         0         0         0         0         0
         0         0         0         0         0         0         0         0
         0         0         0         0         0         0         0         0
         0         0         0         0         0         0         0         0
         0         0         0         0         0         0         0         0
         0         0         0         0         0         0         0         0
         0         0         0         0         0         0         0         0
         0         0         0         0         0         0         0         0
         0         0         0         0         0         0         0         0
         0         0         0         0         0         0         0         0
         0         0         0         0         0         0         0         0
         0         0         0         0         0         0         0         0
         0         0         0         0         0         0         0         0
         0         0         0         0         0         0         0         0
         0         0         0         0         0         0         0         0
         0         0         0         0         0         0         0         0
         0         0         0         0         0         0         0         0
         0         0         0         0         0         0         0         0
         0         0         0         0         0         0         0         0
         0         0         0         0         0         0         0         0
         0         0         0         0         0         0         0         0
         0         0         0         0         0         0         0         0
         0         0         0         0         0         0         0         0
         0         0         0         0         0         0         0         0
         0         0         0         0         0         0         0         0
         0         0         0         0         0         0         0         0
         0         0         0         0         0         0         0         0
         0         0         0         0         0         0         0         0
         0         0         0         0         0         0         0         0
         0         0         0         0         0         0         0         0
         0         0         0         0         0         0         0         0
         0         0         0         0         0         0         0         0
         0         0         0         0         0         0         0         0
         0         0         0         0         0         0         0         0
         0         0         0         0         0         0         0         0
         0         0         0         0         0         0         0         0
         0         0         0         0         0         0         0         0
         0         0         0         0         0         0         0         0
         0         0         0         0         0         0         0         0
         0         0         0         0         0         0         0         0
         0         0         0         0         0         0         0         0
         0         0         0         0         0         0         0         0
         0         0         0         0         0         0         0         0
         0         0         0         0         0         0         0         0
         0         0         0         0         0         0         0         0
         0         0         0         0         0         0         0         0
         0         0         0         0         0         0         0         0
         0         0         0         0         0         0         0         0
         0         0         0         0         0         0         0         0
         0         0         0         0         0         0         0         0
         0         0         0         0         0         0         0         0
         0         0         0         0         0         0         0         0
         0         0         0         0         0         0         0         0
         0         0         0         0         0         0         0         0
         0         0         0         0         0         0         0         0
         0         0         0         0         0         0         0         0
         0         0         0         0         0         0         0         0
         0         0         0         0         0         0         0         0
         0         0         0         0         0         0         0         0
         0         0         0         0         0         0         0         0
         0         0         0         0         0         0         0         0
         0         0         0         0         0         0         0         0
         0         0         0         0         0         0         0         0
         0         0         0         0         0         0         0         0
         0         0         0         0         0         0         0         0
         0         0         0         0         0         0         0         0
         0         0         0         0         0         0         0         0
         0         0         0         0         0         0         0         0
         0         0         0         0         0         0         0         0
         0         0         0         0         0         0         0         0
         0         0         0         0         0         0         0         0
         0         0         0         0         0         0         0         0
         0         0         0         0         0         0         0         0
         0         0         0         0         0         0         0         0
         0         0         0         0         0         0         0         0
         0         0         0         0         0         0         0         0
         0         0         0         0         0         0         0         0
         0         0         0         0         0         0         0         0
         0         0         0         0         0         0         0         0
         0         0         0         0         0         0         0         0
         0         0         0         0         0         0         0         0
         0         0         0         0         0         0         0         0
         0         0         0         0         0         0         0         0
         0         0         0         0         0         0         0         0
         0         0         0         0         0         0         0         0
         0         0         0         0         0         0         0         0
         0         0         0         0         0         0         0         0
         0         0         0         0         0         0         0         0
         0         0         0         0         0         0         0         0
         0         0         0         0         0         0         0         0
         0         0         0         0         0         0         0         0
         0         0         0         0         0         0         0         0
         0         0         0         0         0         0         0         0
         0         0         0         0         0         0         0         0
         0         0         0         0         0         0         0         0
         0         0         0         0         0         0         0         0
         0         0         0         0         0         0         0         0
         0         0         0         0         0         0         0         0
         0         0         0         0         0         0         0         0
         0         0         0         0         0         0         0         0
         0         0         0         0         0         0         0         0
         0         0         0         0         0         0         0         0
         0         0         0         0         0         0         0         0
         0         0         0         0         0         0         0         0
         0         0         0         0         0         0         0         0
         0         0         0         0         0         0         0         0
         0         0         0         0         0         0         0         0
         0         0         0         0         0         0         0         0
         0         0         0         0         0         0         0         0
         0         0         0         0         0         0         0         0
         0         0         0         0         0         0         0         0
         0         0         0         0         0         0         0         0
         0         0         0         0         0         0         0         0
         0         0         0         0         0         0         0         0
         0         0         0         0         0         0         0         0
         0         0         0         0         0         0         0         0
         0         0         0         0         0         0         0         0
         0         0         0         0         0         0         0         0
         0         0         0         0         0         0         0         0
         0         0         0         0         0         0         0         0
         0         0         0         0         0         0         0         0
         0         0         0         0         0         0         0         0
         0         0         0         0         0         0         0         0
         0         0         0         0         0         0         0         0
         0         0         0         0         0         0         0         0
         0         0         0         0         0         0         0         0
         0         0         0         0         0         0         0         0
         0         0         0         0         0         0         0         0
         0         0         0         0         0         0         0         0
         0         0         0         0         0         0         0         0
         0         0         0         0         0         0         0         0
         0         0         0         0         0         0         0         0
         0         0         0         0         0         0         0         0
         0         0         0         0         0         0         0         0
         0         0         0         0         0         0         0         0
         0         0         0         0         0         0         0         0
         0         0         0         0         0         0         0         0
         0         0         0         0         0         0         0         0
         0         0         0         0         0         0         0         0
         0         0         0         0         0         0         0         0
         0         0         0         0         0         0         0         0
         0         0         0         0         0         0         0         0
         0         0         0         0         0         0         0         0
         0         0         0         0         0         0         0         0
         0         0         0         0         0         0         0         0
         0         0         0         0         0         0         0         0
         0         0         0         0         0         0         0         0
         0         0         0         0         0         0         0         0
         0         0         0         0         0         0         0         0
         0         0         0         0         0         0         0         0
         0         0         0         0         0         0         0         0
         0         0         0         0         0         0         0         0
         0         0         0         0         0         0         0         0
         0         0         0         0         0         0         0         0
         0         0         0         0         0         0         0

         0         0 !NGRP NST2


         0         0 !NUMLP NUMLPH

         0 !NCRTERM: cross-terms

