        15  EXT
         1         1  PRO       N              19.0000000000        0.0000000000        0.0000000000  PROF      6               0.0000000000
         2         1  PRO       CA             20.4580000000        0.0000000000        0.0000000000  PROF      6               0.0000000000
         3         1  PRO       HA             21.1080000000       -0.3630000000        0.9320000000  PROF      6               0.0000000000
         4         1  PRO       C              21.0090000000        1.4200000000        0.0000000000  PROF      6               0.0000000000
         5         1  PRO       O              20.2510000000        2.3900000000        0.0000000000  PROF      6               0.0000000000
         6         1  PRO       CD             19.0140000000       -1.4440000000       -0.0480000000  PROF      6               0.0000000000
         7         1  PRO       HD2            18.1910000000       -1.8770000000        0.7020000000  PROF      6               0.0000000000
         8         1  PRO       HD3            19.8360000000       -2.1790000000        0.4310000000  PROF      6               0.0000000000
         9         1  PRO       CG             19.4460000000       -1.4960000000       -1.5260000000  PROF      6               0.0000000000
        10         1  PRO       HG2            19.1660000000       -1.4840000000       -2.6950000000  PROF      6               0.0000000000
        11         1  PRO       HG3            20.0250000000       -2.5580000000       -1.5940000000  PROF      6               0.0000000000
        12         1  PRO       CB             20.4130000000       -0.3090000000       -1.4980000000  PROF      6               0.0000000000
        13         1  PRO       HB2            21.5010000000       -0.7430000000       -1.7660000000  PROF      6               0.0000000000
        14         1  PRO       HB3            20.3940000000        0.5850000000       -2.2950000000  PROF      6               0.0000000000
        15         1  PRO       OXT            22.2470000000        1.5620000000       -0.0040000000  PROF      6               0.0000000000
