        16  EXT
         1         1  ASN       N               0.0000000000        0.0000000000        0.0000000000  PROA      1               0.0000000000
         2         1  ASN       H              -0.3760000000        0.5840000000        0.9810000000  PROA      1               0.0000000000
         3         1  ASN       H2             -0.6360000000        0.5690000000       -0.8440000000  PROA      1               0.0000000000
         4         1  ASN       H3             -0.6240000000       -1.0120000000        0.1380000000  PROA      1               0.0000000000
         5         1  ASN       CA              1.4580000000        0.0000000000        0.0000000000  PROA      1               0.0000000000
         6         1  ASN       HA              1.5670000000       -0.3900000000        1.1210000000  PROA      1               0.0000000000
         7         1  ASN       C               2.0090000000        1.4200000000        0.0000000000  PROA      1               0.0000000000
         8         1  ASN       O               1.2510000000        2.3900000000        0.0000000000  PROA      1               0.0000000000
         9         1  ASN       CB              1.8910000000       -0.6310000000       -1.3270000000  PROA      1               0.0000000000
        10         1  ASN       HB2             1.2640000000       -0.0030000000       -2.1360000000  PROA      1               0.0000000000
        11         1  ASN       HB3             2.8900000000       -0.5860000000       -1.9760000000  PROA      1               0.0000000000
        12         1  ASN       CG              1.5030000000       -2.0750000000       -1.6800000000  PROA      1               0.0000000000
        13         1  ASN       OD1             1.8170000000       -2.4770000000       -2.7860000000  PROA      1               0.0000000000
        14         1  ASN       ND2             0.8470000000       -2.8710000000       -0.8200000000  PROA      1               0.0000000000
        15         1  ASN       HD21            1.2990000000       -3.6270000000       -0.0170000000  PROA      1               0.0000000000
        16         1  ASN       HD22           -0.2020000000       -3.3070000000       -1.1840000000  PROA      1               0.0000000000
