        14  EXT
         1         1  PRO       N              11.4000000000        0.0000000000        0.0000000000  PROD      4               0.0000000000
         2         1  PRO       CA             12.8580000000        0.0000000000        0.0000000000  PROD      4               0.0000000000
         3         1  PRO       HA             12.9420000000        0.0010000000        1.1940000000  PROD      4               0.0000000000
         4         1  PRO       C              13.4090000000        1.4200000000        0.0000000000  PROD      4               0.0000000000
         5         1  PRO       O              12.6510000000        2.3900000000        0.0000000000  PROD      4               0.0000000000
         6         1  PRO       CD             11.4580000000       -1.4530000000       -0.0440000000  PROD      4               0.0000000000
         7         1  PRO       HD2            12.0170000000       -1.9820000000        0.8800000000  PROD      4               0.0000000000
         8         1  PRO       HD3            10.5050000000       -2.1750000000        0.0600000000  PROD      4               0.0000000000
         9         1  PRO       CG             11.9060000000       -1.5690000000       -1.5080000000  PROD      4               0.0000000000
        10         1  PRO       HG2            11.1660000000       -2.0370000000       -2.3270000000  PROD      4               0.0000000000
        11         1  PRO       HG3            12.4450000000       -2.6340000000       -1.3570000000  PROD      4               0.0000000000
        12         1  PRO       CB             12.9460000000       -0.4380000000       -1.4670000000  PROD      4               0.0000000000
        13         1  PRO       HB2            13.8130000000       -1.2610000000       -1.5060000000  PROD      4               0.0000000000
        14         1  PRO       HB3            13.6290000000        0.4830000000       -1.8160000000  PROD      4               0.0000000000
