        24  EXT
         1         1  ARG       N               7.6000000000        0.0000000000        0.0000000000  PROC      3               0.0000000000
         2         1  ARG       H               7.3910000000       -0.9550000000        0.6780000000  PROC      3               0.0000000000
         3         1  ARG       CA              9.0580000000        0.0000000000        0.0000000000  PROC      3               0.0000000000
         4         1  ARG       HA              9.2990000000       -0.2090000000        1.1510000000  PROC      3               0.0000000000
         5         1  ARG       C               9.6090000000        1.4200000000        0.0000000000  PROC      3               0.0000000000
         6         1  ARG       O               8.8510000000        2.3900000000        0.0000000000  PROC      3               0.0000000000
         7         1  ARG       CB              9.2910000000       -0.1530000000       -1.5380000000  PROC      3               0.0000000000
         8         1  ARG       HB2             8.5560000000        0.5680000000       -2.1460000000  PROC      3               0.0000000000
         9         1  ARG       HB3             8.9490000000       -1.2540000000       -1.8600000000  PROC      3               0.0000000000
        10         1  ARG       CG             10.6580000000        0.2430000000       -2.1440000000  PROC      3               0.0000000000
        11         1  ARG       HG2            11.7040000000        0.8120000000       -1.9780000000  PROC      3               0.0000000000
        12         1  ARG       HG3            10.2290000000        1.3710000000       -2.1000000000  PROC      3               0.0000000000
        13         1  ARG       CD             10.9540000000        0.1410000000       -3.6700000000  PROC      3               0.0000000000
        14         1  ARG       HD2            10.0920000000        0.7180000000       -4.2740000000  PROC      3               0.0000000000
        15         1  ARG       HD3            10.8330000000       -0.8490000000       -4.3320000000  PROC      3               0.0000000000
        16         1  ARG       NE             12.1560000000        0.9280000000       -3.9870000000  PROC      3               0.0000000000
        17         1  ARG       HE             11.9500000000        1.8970000000       -4.6510000000  PROC      3               0.0000000000
        18         1  ARG       CZ             13.4640000000        0.6110000000       -4.0690000000  PROC      3               0.0000000000
        19         1  ARG       NH1            13.8270000000       -0.6620000000       -3.8350000000  PROC      3               0.0000000000
        20         1  ARG       HH11           14.9340000000       -0.9250000000       -4.2030000000  PROC      3               0.0000000000
        21         1  ARG       HH12           13.2690000000       -1.5640000000       -4.3850000000  PROC      3               0.0000000000
        22         1  ARG       NH2            14.3990000000        1.5250000000       -4.3720000000  PROC      3               0.0000000000
        23         1  ARG       HH21           14.7940000000        2.5210000000       -3.8540000000  PROC      3               0.0000000000
        24         1  ARG       HH22           14.7810000000        1.5620000000       -5.5000000000  PROC      3               0.0000000000
