        14  EXT
         1         1  ASN       N              15.2000000000        0.0000000000        0.0000000000  PROE      5               0.0000000000
         2         1  ASN       H              14.9360000000       -0.6050000000        0.9890000000  PROE      5               0.0000000000
         3         1  ASN       CA             16.6580000000        0.0000000000        0.0000000000  PROE      5               0.0000000000
         4         1  ASN       HA             16.9290000000       -0.0950000000        1.1600000000  PROE      5               0.0000000000
         5         1  ASN       C              17.2090000000        1.4200000000        0.0000000000  PROE      5               0.0000000000
         6         1  ASN       O              16.4510000000        2.3900000000        0.0000000000  PROE      5               0.0000000000
         7         1  ASN       CB             17.0740000000       -0.3830000000       -1.4270000000  PROE      5               0.0000000000
         8         1  ASN       HB2            16.2100000000        0.1510000000       -2.0670000000  PROE      5               0.0000000000
         9         1  ASN       HB3            17.8720000000        0.2840000000       -2.0180000000  PROE      5               0.0000000000
        10         1  ASN       CG             16.7180000000       -1.8010000000       -1.9090000000  PROE      5               0.0000000000
        11         1  ASN       OD1            17.0190000000       -2.1380000000       -3.0450000000  PROE      5               0.0000000000
        12         1  ASN       ND2            16.0780000000       -2.6590000000       -1.0900000000  PROE      5               0.0000000000
        13         1  ASN       HD21           16.4810000000       -3.3400000000       -0.1970000000  PROE      5               0.0000000000
        14         1  ASN       HD22           15.3490000000       -3.4340000000       -1.6330000000  PROE      5               0.0000000000
