        14  EXT
         1         1  ASN       N               3.8000000000        0.0000000000        0.0000000000  PROB      2               0.0000000000
         2         1  ASN       H               3.5850000000       -0.7350000000        0.9120000000  PROB      2               0.0000000000
         3         1  ASN       CA              5.2580000000        0.0000000000        0.0000000000  PROB      2               0.0000000000
         4         1  ASN       HA              5.4710000000       -0.1800000000        1.1610000000  PROB      2               0.0000000000
         5         1  ASN       C               5.8090000000        1.4200000000        0.0000000000  PROB      2               0.0000000000
         6         1  ASN       O               5.0510000000        2.3900000000        0.0000000000  PROB      2               0.0000000000
         7         1  ASN       CB              5.7810000000       -0.3680000000       -1.3940000000  PROB      2               0.0000000000
         8         1  ASN       HB2             6.6380000000       -0.1550000000       -2.1950000000  PROB      2               0.0000000000
         9         1  ASN       HB3             5.0330000000        0.3190000000       -2.0520000000  PROB      2               0.0000000000
        10         1  ASN       CG              5.4900000000       -1.7970000000       -1.8800000000  PROB      2               0.0000000000
        11         1  ASN       OD1             5.7880000000       -2.1090000000       -3.0210000000  PROB      2               0.0000000000
        12         1  ASN       ND2             4.9160000000       -2.6760000000       -1.0470000000  PROB      2               0.0000000000
        13         1  ASN       HD21            4.3670000000       -3.5700000000       -1.6100000000  PROB      2               0.0000000000
        14         1  ASN       HD22            5.2580000000       -3.1560000000       -0.0130000000  PROB      2               0.0000000000
